 Entering Gaussian System, Link 0=/opt/gaussian/gaussian16/g16/g16
 Initial command:
 /opt/gaussian/gaussian16/g16/l1.exe "/work/hkim/gaussian/compound_2_ketone_1/s1_opt/S_to_T_pipi/duschinsky/az.177755/Gau-177767.inp" -scrdir="/work/hkim/gaussian/compound_2_ketone_1/s1_opt/S_to_T_pipi/duschinsky/az.177755/"
 Entering Link 1 = /opt/gaussian/gaussian16/g16/l1.exe PID=    177770.
  
 Copyright (c) 1988-2019, Gaussian, Inc.  All Rights Reserved.
  
 This is part of the Gaussian(R) 16 program.  It is based on
 the Gaussian(R) 09 system (copyright 2009, Gaussian, Inc.),
 the Gaussian(R) 03 system (copyright 2003, Gaussian, Inc.),
 the Gaussian(R) 98 system (copyright 1998, Gaussian, Inc.),
 the Gaussian(R) 94 system (copyright 1995, Gaussian, Inc.),
 the Gaussian 92(TM) system (copyright 1992, Gaussian, Inc.),
 the Gaussian 90(TM) system (copyright 1990, Gaussian, Inc.),
 the Gaussian 88(TM) system (copyright 1988, Gaussian, Inc.),
 the Gaussian 86(TM) system (copyright 1986, Carnegie Mellon
 University), and the Gaussian 82(TM) system (copyright 1983,
 Carnegie Mellon University). Gaussian is a federally registered
 trademark of Gaussian, Inc.
  
 This software contains proprietary and confidential information,
 including trade secrets, belonging to Gaussian, Inc.
  
 This software is provided under written license and may be
 used, copied, transmitted, or stored only in accord with that
 written license.
  
 The following legend is applicable only to US Government
 contracts under FAR:
  
                    RESTRICTED RIGHTS LEGEND
  
 Use, reproduction and disclosure by the US Government is
 subject to restrictions as set forth in subparagraphs (a)
 and (c) of the Commercial Computer Software - Restricted
 Rights clause in FAR 52.227-19.
  
 Gaussian, Inc.
 340 Quinnipiac St., Bldg. 40, Wallingford CT 06492
  
  
 ---------------------------------------------------------------
 Warning -- This program may not be used in any manner that
 competes with the business of Gaussian, Inc. or will provide
 assistance to any competitor of Gaussian, Inc.  The licensee
 of this program is prohibited from giving any competitor of
 Gaussian, Inc. access to this program.  By using this program,
 the user acknowledges that Gaussian, Inc. is engaged in the
 business of creating and licensing software in the field of
 computational chemistry and represents and warrants to the
 licensee that it is not a competitor of Gaussian, Inc. and that
 it will not use this program in any manner prohibited above.
 ---------------------------------------------------------------
  

 Cite this work as:
 Gaussian 16, Revision C.01,
 M. J. Frisch, G. W. Trucks, H. B. Schlegel, G. E. Scuseria, 
 M. A. Robb, J. R. Cheeseman, G. Scalmani, V. Barone, 
 G. A. Petersson, H. Nakatsuji, X. Li, M. Caricato, A. V. Marenich, 
 J. Bloino, B. G. Janesko, R. Gomperts, B. Mennucci, H. P. Hratchian, 
 J. V. Ortiz, A. F. Izmaylov, J. L. Sonnenberg, D. Williams-Young, 
 F. Ding, F. Lipparini, F. Egidi, J. Goings, B. Peng, A. Petrone, 
 T. Henderson, D. Ranasinghe, V. G. Zakrzewski, J. Gao, N. Rega, 
 G. Zheng, W. Liang, M. Hada, M. Ehara, K. Toyota, R. Fukuda, 
 J. Hasegawa, M. Ishida, T. Nakajima, Y. Honda, O. Kitao, H. Nakai, 
 T. Vreven, K. Throssell, J. A. Montgomery, Jr., J. E. Peralta, 
 F. Ogliaro, M. J. Bearpark, J. J. Heyd, E. N. Brothers, K. N. Kudin, 
 V. N. Staroverov, T. A. Keith, R. Kobayashi, J. Normand, 
 K. Raghavachari, A. P. Rendell, J. C. Burant, S. S. Iyengar, 
 J. Tomasi, M. Cossi, J. M. Millam, M. Klene, C. Adamo, R. Cammi, 
 J. W. Ochterski, R. L. Martin, K. Morokuma, O. Farkas, 
 J. B. Foresman, and D. J. Fox, Gaussian, Inc., Wallingford CT, 2019.
 
 ******************************************
 Gaussian 16:  ES64L-G16RevC.01  3-Jul-2019
                28-May-2024 
 ******************************************
 %chk=azaphenalene.chk
 %mem=8GB
 --------------------------------------------------------------
 #P Geom=AllCheck b3lyp/6-31G* Freq=(ReadFC,FC,ReadFCHT) NoSymm
 --------------------------------------------------------------
 1/29=7,38=1,172=1/1;
 2/12=2,15=1,40=1/2;
 7/8=1,25=11,30=1,71=10,121=1/16,18;
 99/5=5/99;
 Leave Link    1 at Tue May 28 10:00:24 2024, MaxMem=  1073741824 cpu:               0.1 elap:               0.1
 (Enter /opt/gaussian/gaussian16/g16/l101.exe)
 Structure from the checkpoint file:  "azaphenalene.chk"
 -------------------
 Title Card Required
 -------------------
 Charge =  0 Multiplicity = 3
 Redundant internal coordinates found in file.  (old form).
 C,0,0.2586827801,-1.2500648477,0.0000122955
 C,0,-1.7542725754,-0.1298252327,0.0001658895
 C,0,0.1369646683,1.1897150902,0.0000730488
 N,0,0.9330657684,0.0068787302,-0.0001074294
 C,0,2.1096058203,2.3536804906,0.0000295869
 H,0,2.6154684522,3.3153189987,0.0000303516
 C,0,2.3132515469,0.0796022414,-0.0000555501
 C,0,2.3440696861,-2.2052996661,-0.0000637757
 H,0,2.943845774,-3.1114940158,-0.0000960771
 N,0,1.0296468327,-2.3681869679,0.0000020486
 N,0,0.7880154974,2.3801925607,0.0001135931
 N,0,-1.1640155708,1.106706058,0.0001562249
 N,0,-1.0405468355,-1.3098862982,0.0001337544
 C,0,-3.2292182731,-0.2115735604,0.000272572
 O,0,-3.7932761491,-1.2990898444,0.0003046988
 C,0,-3.9958065305,1.0992271206,0.0003405303
 H,0,-5.0637232493,0.8735673749,0.0004208176
 H,0,-3.7440489145,1.7047223927,0.8783355559
 H,0,-3.7441868449,1.704740274,-0.8776814395
 N,0,2.9254496114,1.2666533492,-0.0000159916
 N,0,3.0430105051,-1.044714248,-0.0000677045
 Recover connectivity data from disk.
 ITRead=  0  0  0  0  0  0  0  0  0  0  0  0  0  0  0  0  0  0  0  0
 ITRead=  0
 MicOpt= -1 -1 -1 -1 -1 -1 -1 -1 -1 -1 -1 -1 -1 -1 -1 -1 -1 -1 -1 -1
 MicOpt= -1
                           ----------------------------
                           !    Current Parameters    !
                           ! (Angstroms and Degrees)  !
 --------------------------                            --------------------------
 ! Name  Definition              Value          Derivative Info.                !
 --------------------------------------------------------------------------------
 ! R1    R(1,4)                  1.4264         estimate D2E/DX2                !
 ! R2    R(1,10)                 1.3582         estimate D2E/DX2                !
 ! R3    R(1,13)                 1.3006         estimate D2E/DX2                !
 ! R4    R(2,12)                 1.3702         estimate D2E/DX2                !
 ! R5    R(2,13)                 1.3791         estimate D2E/DX2                !
 ! R6    R(2,14)                 1.4772         estimate D2E/DX2                !
 ! R7    R(3,4)                  1.4258         estimate D2E/DX2                !
 ! R8    R(3,11)                 1.3569         estimate D2E/DX2                !
 ! R9    R(3,12)                 1.3036         estimate D2E/DX2                !
 ! R10   R(4,7)                  1.3821         estimate D2E/DX2                !
 ! R11   R(5,6)                  1.0866         estimate D2E/DX2                !
 ! R12   R(5,11)                 1.3219         estimate D2E/DX2                !
 ! R13   R(5,20)                 1.3591         estimate D2E/DX2                !
 ! R14   R(7,20)                 1.3356         estimate D2E/DX2                !
 ! R15   R(7,21)                 1.3404         estimate D2E/DX2                !
 ! R16   R(8,9)                  1.0867         estimate D2E/DX2                !
 ! R17   R(8,10)                 1.3245         estimate D2E/DX2                !
 ! R18   R(8,21)                 1.3548         estimate D2E/DX2                !
 ! R19   R(14,15)                1.2251         estimate D2E/DX2                !
 ! R20   R(14,16)                1.5185         estimate D2E/DX2                !
 ! R21   R(16,17)                1.0915         estimate D2E/DX2                !
 ! R22   R(16,18)                1.0958         estimate D2E/DX2                !
 ! R23   R(16,19)                1.0958         estimate D2E/DX2                !
 ! A1    A(4,1,10)             117.1984         estimate D2E/DX2                !
 ! A2    A(4,1,13)             120.851          estimate D2E/DX2                !
 ! A3    A(10,1,13)            121.9507         estimate D2E/DX2                !
 ! A4    A(12,2,13)            123.3161         estimate D2E/DX2                !
 ! A5    A(12,2,14)            118.6898         estimate D2E/DX2                !
 ! A6    A(13,2,14)            117.9941         estimate D2E/DX2                !
 ! A7    A(4,3,11)             117.3842         estimate D2E/DX2                !
 ! A8    A(4,3,12)             120.2915         estimate D2E/DX2                !
 ! A9    A(11,3,12)            122.3243         estimate D2E/DX2                !
 ! A10   A(1,4,3)              117.843          estimate D2E/DX2                !
 ! A11   A(1,4,7)              121.2309         estimate D2E/DX2                !
 ! A12   A(3,4,7)              120.9261         estimate D2E/DX2                !
 ! A13   A(6,5,11)             116.597          estimate D2E/DX2                !
 ! A14   A(6,5,20)             115.3645         estimate D2E/DX2                !
 ! A15   A(11,5,20)            128.0385         estimate D2E/DX2                !
 ! A16   A(4,7,20)             120.2977         estimate D2E/DX2                !
 ! A17   A(4,7,21)             119.9702         estimate D2E/DX2                !
 ! A18   A(20,7,21)            119.7321         estimate D2E/DX2                !
 ! A19   A(9,8,10)             116.4348         estimate D2E/DX2                !
 ! A20   A(9,8,21)             115.4433         estimate D2E/DX2                !
 ! A21   A(10,8,21)            128.1219         estimate D2E/DX2                !
 ! A22   A(1,10,8)             117.5227         estimate D2E/DX2                !
 ! A23   A(3,11,5)             117.5242         estimate D2E/DX2                !
 ! A24   A(2,12,3)             119.1682         estimate D2E/DX2                !
 ! A25   A(1,13,2)             118.5302         estimate D2E/DX2                !
 ! A26   A(2,14,15)            120.5866         estimate D2E/DX2                !
 ! A27   A(2,14,16)            117.1478         estimate D2E/DX2                !
 ! A28   A(15,14,16)           122.2656         estimate D2E/DX2                !
 ! A29   A(14,16,17)           108.3886         estimate D2E/DX2                !
 ! A30   A(14,16,18)           111.1626         estimate D2E/DX2                !
 ! A31   A(14,16,19)           111.163          estimate D2E/DX2                !
 ! A32   A(17,16,18)           109.8128         estimate D2E/DX2                !
 ! A33   A(17,16,19)           109.8127         estimate D2E/DX2                !
 ! A34   A(18,16,19)           106.4924         estimate D2E/DX2                !
 ! A35   A(5,20,7)             115.8292         estimate D2E/DX2                !
 ! A36   A(7,21,8)             115.956          estimate D2E/DX2                !
 ! D1    D(10,1,4,3)          -179.9922         estimate D2E/DX2                !
 ! D2    D(10,1,4,7)            -0.0084         estimate D2E/DX2                !
 ! D3    D(13,1,4,3)             0.0074         estimate D2E/DX2                !
 ! D4    D(13,1,4,7)           179.9912         estimate D2E/DX2                !
 ! D5    D(4,1,10,8)             0.0026         estimate D2E/DX2                !
 ! D6    D(13,1,10,8)         -179.9969         estimate D2E/DX2                !
 ! D7    D(4,1,13,2)            -0.001          estimate D2E/DX2                !
 ! D8    D(10,1,13,2)          179.9986         estimate D2E/DX2                !
 ! D9    D(13,2,12,3)            0.0021         estimate D2E/DX2                !
 ! D10   D(14,2,12,3)          179.9995         estimate D2E/DX2                !
 ! D11   D(12,2,13,1)           -0.004          estimate D2E/DX2                !
 ! D12   D(14,2,13,1)          179.9986         estimate D2E/DX2                !
 ! D13   D(12,2,14,15)        -179.9989         estimate D2E/DX2                !
 ! D14   D(12,2,14,16)           0.001          estimate D2E/DX2                !
 ! D15   D(13,2,14,15)          -0.0014         estimate D2E/DX2                !
 ! D16   D(13,2,14,16)         179.9986         estimate D2E/DX2                !
 ! D17   D(11,3,4,1)           179.9926         estimate D2E/DX2                !
 ! D18   D(11,3,4,7)             0.0087         estimate D2E/DX2                !
 ! D19   D(12,3,4,1)            -0.0093         estimate D2E/DX2                !
 ! D20   D(12,3,4,7)          -179.9932         estimate D2E/DX2                !
 ! D21   D(4,3,11,5)            -0.0023         estimate D2E/DX2                !
 ! D22   D(12,3,11,5)          179.9996         estimate D2E/DX2                !
 ! D23   D(4,3,12,2)             0.0047         estimate D2E/DX2                !
 ! D24   D(11,3,12,2)         -179.9972         estimate D2E/DX2                !
 ! D25   D(1,4,7,20)          -179.9924         estimate D2E/DX2                !
 ! D26   D(1,4,7,21)             0.0088         estimate D2E/DX2                !
 ! D27   D(3,4,7,20)            -0.009          estimate D2E/DX2                !
 ! D28   D(3,4,7,21)           179.9921         estimate D2E/DX2                !
 ! D29   D(6,5,11,3)           179.998          estimate D2E/DX2                !
 ! D30   D(20,5,11,3)           -0.0042         estimate D2E/DX2                !
 ! D31   D(6,5,20,7)          -179.9982         estimate D2E/DX2                !
 ! D32   D(11,5,20,7)            0.0041         estimate D2E/DX2                !
 ! D33   D(4,7,20,5)             0.0028         estimate D2E/DX2                !
 ! D34   D(21,7,20,5)         -179.9983         estimate D2E/DX2                !
 ! D35   D(4,7,21,8)            -0.0032         estimate D2E/DX2                !
 ! D36   D(20,7,21,8)          179.9979         estimate D2E/DX2                !
 ! D37   D(9,8,10,1)          -179.9985         estimate D2E/DX2                !
 ! D38   D(21,8,10,1)            0.003          estimate D2E/DX2                !
 ! D39   D(9,8,21,7)           179.9987         estimate D2E/DX2                !
 ! D40   D(10,8,21,7)           -0.0028         estimate D2E/DX2                !
 ! D41   D(2,14,16,17)        -179.9997         estimate D2E/DX2                !
 ! D42   D(2,14,16,18)         -59.2219         estimate D2E/DX2                !
 ! D43   D(2,14,16,19)          59.2223         estimate D2E/DX2                !
 ! D44   D(15,14,16,17)          0.0002         estimate D2E/DX2                !
 ! D45   D(15,14,16,18)        120.7781         estimate D2E/DX2                !
 ! D46   D(15,14,16,19)       -120.7778         estimate D2E/DX2                !
 --------------------------------------------------------------------------------
 NAtoms=     21 NQM=       21 NQMF=       0 NMMI=      0 NMMIF=      0
                NMic=       0 NMicF=      0.
                    Isotopes and Nuclear Properties:
 (Nuclear quadrupole moments (NQMom) in fm**2, nuclear magnetic moments (NMagM)
  in nuclear magnetons)

  Atom         1           2           3           4           5           6           7           8           9          10
 IAtWgt=          12          12          12          14          12           1          12          12           1          14
 AtmWgt=  12.0000000  12.0000000  12.0000000  14.0030740  12.0000000   1.0078250  12.0000000  12.0000000   1.0078250  14.0030740
 NucSpn=           0           0           0           2           0           1           0           0           1           2
 AtZEff=   3.6000000   3.6000000   3.6000000   4.5500000   3.6000000   1.0000000   3.6000000   3.6000000   1.0000000   4.5500000
 NQMom=    0.0000000   0.0000000   0.0000000   2.0440000   0.0000000   0.0000000   0.0000000   0.0000000   0.0000000   2.0440000
 NMagM=    0.0000000   0.0000000   0.0000000   0.4037610   0.0000000   2.7928460   0.0000000   0.0000000   2.7928460   0.4037610
 AtZNuc=   6.0000000   6.0000000   6.0000000   7.0000000   6.0000000   1.0000000   6.0000000   6.0000000   1.0000000   7.0000000

  Atom        11          12          13          14          15          16          17          18          19          20
 IAtWgt=          14          14          14          12          16          12           1           1           1          14
 AtmWgt=  14.0030740  14.0030740  14.0030740  12.0000000  15.9949146  12.0000000   1.0078250   1.0078250   1.0078250  14.0030740
 NucSpn=           2           2           2           0           0           0           1           1           1           2
 AtZEff=   4.5500000   4.5500000   4.5500000   3.6000000   5.6000000   3.6000000   1.0000000   1.0000000   1.0000000   4.5500000
 NQMom=    2.0440000   2.0440000   2.0440000   0.0000000   0.0000000   0.0000000   0.0000000   0.0000000   0.0000000   2.0440000
 NMagM=    0.4037610   0.4037610   0.4037610   0.0000000   0.0000000   0.0000000   2.7928460   2.7928460   2.7928460   0.4037610
 AtZNuc=   7.0000000   7.0000000   7.0000000   6.0000000   8.0000000   6.0000000   1.0000000   1.0000000   1.0000000   7.0000000

  Atom        21
 IAtWgt=          14
 AtmWgt=  14.0030740
 NucSpn=           2
 AtZEff=   4.5500000
 NQMom=    2.0440000
 NMagM=    0.4037610
 AtZNuc=   7.0000000
 Leave Link  101 at Tue May 28 10:00:25 2024, MaxMem=  1073741824 cpu:               0.4 elap:               0.4
 (Enter /opt/gaussian/gaussian16/g16/l202.exe)
                          Input orientation:                          
 ---------------------------------------------------------------------
 Center     Atomic      Atomic             Coordinates (Angstroms)
 Number     Number       Type             X           Y           Z
 ---------------------------------------------------------------------
      1          6           0        0.258683   -1.250065    0.000012
      2          6           0       -1.754273   -0.129825    0.000166
      3          6           0        0.136965    1.189715    0.000073
      4          7           0        0.933066    0.006879   -0.000107
      5          6           0        2.109606    2.353680    0.000030
      6          1           0        2.615468    3.315319    0.000030
      7          6           0        2.313252    0.079602   -0.000056
      8          6           0        2.344070   -2.205300   -0.000064
      9          1           0        2.943846   -3.111494   -0.000096
     10          7           0        1.029647   -2.368187    0.000002
     11          7           0        0.788015    2.380193    0.000114
     12          7           0       -1.164016    1.106706    0.000156
     13          7           0       -1.040547   -1.309886    0.000134
     14          6           0       -3.229218   -0.211574    0.000273
     15          8           0       -3.793276   -1.299090    0.000305
     16          6           0       -3.995807    1.099227    0.000341
     17          1           0       -5.063723    0.873567    0.000421
     18          1           0       -3.744049    1.704722    0.878336
     19          1           0       -3.744187    1.704740   -0.877681
     20          7           0        2.925450    1.266653   -0.000016
     21          7           0        3.043011   -1.044714   -0.000068
 ---------------------------------------------------------------------
                    Distance matrix (angstroms):
                    1          2          3          4          5
     1  C    0.000000
     2  C    2.303677   0.000000
     3  C    2.442814   2.306071   0.000000
     4  N    1.426429   2.690813   1.425791   0.000000
     5  C    4.051283   4.593186   2.290443   2.625210   0.000000
     6  H    5.137817   5.564500   3.265145   3.711638   1.086575
     7  C    2.447298   4.072912   2.443067   1.382100   2.283178
     8  C    2.293755   4.593909   4.049375   2.623865   4.565005
     9  H    3.267265   5.564411   5.136047   3.710456   5.528480
    10  N    1.358154   3.572180   3.668181   2.377029   4.843794
    11  N    3.668646   3.572593   1.356873   2.377742   1.321856
    12  N    2.752897   1.370187   1.303626   2.367989   3.503076
    13  N    1.300606   1.379112   2.763067   2.372555   4.831685
    14  C    3.639219   1.477209   3.646203   4.168013   5.923139
    15  O    4.052256   2.350471   4.651983   4.903454   6.941667
    16  C    4.860026   2.556373   4.133762   5.048466   6.232954
    17  H    5.730429   3.458216   5.210288   6.059095   7.324438
    18  H    5.052136   2.845339   4.012336   5.052696   5.954649
    19  H    5.052147   2.845348   4.012361   5.052679   5.954695
    20  N    3.666813   4.883641   2.789546   2.357250   1.359128
    21  N    2.791890   4.883743   3.665757   2.357481   3.524249
                    6          7          8          9         10
     6  H    0.000000
     7  C    3.249800   0.000000
     8  C    5.527286   2.285110   0.000000
     9  H    6.435197   3.252806   1.086701   0.000000
    10  N    5.900599   2.763931   1.324477   2.053451   0.000000
    11  N    2.052814   2.760265   4.842318   5.899680   4.754524
    12  N    4.377496   3.625787   4.824525   5.887931   4.109384
    13  N    5.895674   3.630240   3.501056   4.372777   2.325017
    14  C    6.826370   5.550113   5.919162   6.820283   4.773774
    15  O    7.897137   6.260229   6.203888   6.976648   4.939995
    16  C    6.972806   6.390919   7.149401   8.117201   6.105583
    17  H    8.058048   7.419578   8.022146   8.944377   6.902038
    18  H    6.618829   6.332730   7.288693   8.288276   6.336263
    19  H    6.618879   6.332761   7.288724   8.288308   6.336289
    20  N    2.071984   1.335619   3.520293   4.378186   4.099528
    21  N    4.380945   1.340386   1.354798   2.069157   2.409401
                   11         12         13         14         15
    11  N    0.000000
    12  N    2.330707   0.000000
    13  N    4.118291   2.419744   0.000000
    14  C    4.780734   2.450086   2.448790   0.000000
    15  O    5.875828   3.563827   2.752750   1.225093   0.000000
    16  C    4.952356   2.831801   3.812793   1.518505   2.406853
    17  H    6.042579   3.906670   4.577490   2.131417   2.516838
    18  H    4.665527   2.790232   4.143432   2.169847   3.129896
    19  H    4.665578   2.790256   4.143453   2.169851   3.129899
    20  N    2.410103   4.092592   4.729449   6.329699   7.191962
    21  N    4.100608   4.725217   4.092158   6.327320   6.841018
                   16         17         18         19         20
    16  C    0.000000
    17  H    1.091498   0.000000
    18  H    1.095847   1.789719   0.000000
    19  H    1.095847   1.789717   1.756017   0.000000
    20  N    6.923281   7.998837   6.741336   6.741385   0.000000
    21  N    7.358086   8.330602   7.375308   7.375348   2.314355
                   21
    21  N    0.000000
 Symmetry turned off by external request.
 Stoichiometry    C8H5N7O(3)
 Framework group  C1[X(C8H5N7O)]
 Deg. of freedom    57
 Full point group                 C1      NOp   1
 Rotational constants (GHZ):           1.0795517           0.4358623           0.3110939
 Leave Link  202 at Tue May 28 10:00:25 2024, MaxMem=  1073741824 cpu:               0.0 elap:               0.0
 (Enter /opt/gaussian/gaussian16/g16/l716.exe)
 Electric field and nuclear coordinate derivatives read from checkpoint file.
 Dipole        = 1.59894308D+00 8.98538125D-01-1.85457221D-04
 Polarizability= 2.35493334D+02 5.67979291D+00 1.68439519D+02
                -1.05233418D-02 1.69402976D-03 5.43932031D+01
 Full mass-weighted force constant matrix:
 Low frequencies ---   -3.4914   -2.8331    0.0005    0.0009    0.0011    3.5760
 Low frequencies ---   61.4970   77.0490  118.9761
 Diagonal vibrational polarizability:
       25.0239325       9.3162979      42.2726333
 Harmonic frequencies (cm**-1), IR intensities (KM/Mole), Raman scattering
 activities (A**4/AMU), depolarization ratios for plane and unpolarized
 incident light, reduced masses (AMU), force constants (mDyne/A),
 and normal coordinates:
                      1                      2                      3
                      A                      A                      A
 Frequencies --     61.4968                77.0489               118.9761
 Red. masses --      5.7287                 5.3175                 1.0517
 Frc consts  --      0.0128                 0.0186                 0.0088
 IR Inten    --      0.7659                 4.5618                 0.0003
  Atom  AN      X      Y      Z        X      Y      Z        X      Y      Z
     1   6    -0.00  -0.00  -0.13    -0.00   0.00  -0.07    -0.00   0.00   0.00
     2   6    -0.00   0.00  -0.11    -0.00   0.00  -0.04    -0.00   0.00   0.00
     3   6    -0.00   0.00  -0.15    -0.00   0.00  -0.07     0.00   0.00   0.01
     4   7     0.00  -0.00  -0.04     0.00   0.00  -0.04     0.00   0.00   0.00
     5   6    -0.00   0.00  -0.03     0.00  -0.00   0.12     0.00  -0.00   0.00
     6   1    -0.00   0.00  -0.04     0.00  -0.00   0.19     0.00  -0.00   0.00
     7   6     0.00  -0.00   0.13     0.00  -0.00   0.07     0.00  -0.00  -0.00
     8   6     0.00  -0.00   0.09    -0.00  -0.00  -0.12    -0.00  -0.00   0.01
     9   1     0.00  -0.00   0.14    -0.00  -0.00  -0.20    -0.00  -0.00   0.02
    10   7    -0.00  -0.00  -0.11    -0.00  -0.00  -0.14    -0.00   0.00   0.01
    11   7    -0.00   0.00  -0.19    -0.00   0.00  -0.02     0.00   0.00   0.01
    12   7    -0.00   0.00  -0.17    -0.00   0.00  -0.09     0.00   0.00   0.01
    13   7    -0.00  -0.00  -0.19    -0.00   0.00  -0.04    -0.00   0.00  -0.00
    14   6     0.00  -0.00   0.06     0.00   0.00   0.07    -0.00  -0.00   0.00
    15   8     0.00   0.00   0.02     0.00  -0.00   0.39    -0.00  -0.00  -0.05
    16   6     0.00  -0.00   0.34    -0.00   0.00  -0.25    -0.00  -0.00   0.02
    17   1     0.00  -0.00   0.44    -0.00   0.00  -0.10     0.00  -0.00   0.56
    18   1     0.10  -0.13   0.41     0.07   0.27  -0.46     0.42   0.28  -0.30
    19   1    -0.10   0.13   0.41    -0.07  -0.27  -0.46    -0.42  -0.28  -0.30
    20   7     0.00  -0.00   0.16     0.00  -0.00   0.18     0.00  -0.00  -0.01
    21   7     0.00  -0.00   0.23    -0.00  -0.00   0.04    -0.00  -0.00  -0.00
                      4                      5                      6
                      A                      A                      A
 Frequencies --    138.6985               150.9657               163.5386
 Red. masses --      7.2796                 5.2508                 7.5584
 Frc consts  --      0.0825                 0.0705                 0.1191
 IR Inten    --      1.1356                 4.4120                 1.4873
  Atom  AN      X      Y      Z        X      Y      Z        X      Y      Z
     1   6    -0.00  -0.00   0.09     0.04  -0.08  -0.00    -0.00   0.00  -0.22
     2   6     0.00   0.00   0.16     0.00  -0.15  -0.00     0.00  -0.00   0.06
     3   6    -0.00   0.00   0.11    -0.04  -0.08   0.00     0.00  -0.00   0.16
     4   7     0.00  -0.00   0.42    -0.00  -0.05   0.00    -0.00   0.00  -0.14
     5   6    -0.00   0.00  -0.23    -0.12   0.03   0.00    -0.00   0.00  -0.21
     6   1    -0.00   0.00  -0.50    -0.17   0.05   0.00    -0.00   0.00  -0.45
     7   6     0.00  -0.00   0.21    -0.01   0.03   0.00    -0.00   0.00  -0.01
     8   6    -0.00  -0.00  -0.21     0.11   0.04  -0.00    -0.00  -0.00   0.20
     9   1    -0.00   0.00  -0.45     0.15   0.07  -0.00     0.00  -0.00   0.42
    10   7    -0.00  -0.00  -0.25     0.11  -0.03  -0.00    -0.00   0.00  -0.17
    11   7    -0.00   0.00  -0.24    -0.12  -0.04   0.00     0.00  -0.00   0.13
    12   7     0.00   0.00   0.07    -0.02  -0.14   0.00     0.00  -0.00   0.35
    13   7    -0.00  -0.00   0.03     0.03  -0.13  -0.00    -0.00  -0.00  -0.23
    14   6     0.00  -0.00   0.01    -0.01   0.03   0.00     0.00  -0.00   0.03
    15   8    -0.00  -0.00  -0.09    -0.22   0.15   0.00     0.00  -0.00   0.07
    16   6    -0.00  -0.00  -0.07     0.26   0.21  -0.00    -0.00  -0.00  -0.11
    17   1    -0.00  -0.00  -0.09     0.22   0.43   0.00    -0.00  -0.00  -0.17
    18   1    -0.02   0.06  -0.10     0.40   0.15  -0.00    -0.07   0.08  -0.14
    19   1     0.02  -0.06  -0.10     0.40   0.15   0.00     0.07  -0.08  -0.14
    20   7     0.00   0.00   0.04    -0.07   0.07  -0.00    -0.00   0.00  -0.17
    21   7     0.00  -0.00   0.07     0.05   0.07  -0.00    -0.00   0.00   0.28
                      7                      8                      9
                      A                      A                      A
 Frequencies --    177.6010               308.5037               309.7233
 Red. masses --     11.8549                11.2146                 5.3438
 Frc consts  --      0.2203                 0.6289                 0.3020
 IR Inten    --      5.4726                 1.4884                 0.8447
  Atom  AN      X      Y      Z        X      Y      Z        X      Y      Z
     1   6    -0.00  -0.00   0.04    -0.00   0.00   0.11    -0.05   0.00  -0.00
     2   6    -0.00   0.00  -0.32     0.00   0.00  -0.14     0.07   0.01   0.00
     3   6    -0.00   0.00   0.14    -0.00   0.00  -0.02    -0.04   0.06   0.00
     4   7     0.00  -0.00   0.53    -0.00   0.00  -0.02    -0.09   0.02   0.00
     5   6     0.00  -0.00   0.05    -0.00   0.00  -0.04    -0.06   0.02   0.00
     6   1     0.00  -0.00   0.12    -0.00   0.00  -0.03    -0.03   0.01  -0.00
     7   6     0.00   0.00  -0.02    -0.00  -0.00   0.04    -0.11  -0.00  -0.00
     8   6     0.00   0.00   0.16    -0.00  -0.00  -0.12    -0.13  -0.03   0.00
     9   1     0.00  -0.00   0.34    -0.00  -0.00  -0.39    -0.12  -0.03   0.00
    10   7     0.00  -0.00   0.08    -0.00  -0.00  -0.27    -0.12  -0.03   0.00
    11   7     0.00   0.00   0.17    -0.00   0.00   0.37    -0.06   0.06  -0.00
    12   7    -0.00   0.00  -0.18    -0.00   0.00  -0.33    -0.02   0.05   0.00
    13   7    -0.00  -0.00  -0.42     0.00   0.00   0.36    -0.02   0.00  -0.00
    14   6    -0.00   0.00  -0.06     0.00  -0.00  -0.08     0.17  -0.05   0.00
    15   8     0.00  -0.00   0.21     0.00  -0.00   0.02     0.28  -0.11  -0.00
    16   6    -0.00  -0.00   0.03     0.00   0.00   0.04     0.35   0.02  -0.00
    17   1    -0.00  -0.00   0.07     0.00   0.00   0.13     0.30   0.26  -0.00
    18   1     0.03  -0.06   0.06     0.08  -0.08   0.08     0.49  -0.03  -0.01
    19   1    -0.03   0.06   0.06    -0.08   0.08   0.08     0.49  -0.03   0.01
    20   7     0.00   0.00  -0.31    -0.00   0.00  -0.34    -0.10  -0.01   0.00
    21   7     0.00  -0.00  -0.17    -0.00  -0.00   0.40    -0.14  -0.02  -0.00
                     10                     11                     12
                      A                      A                      A
 Frequencies --    323.6068               390.5560               479.4106
 Red. masses --      4.5034                 6.3231                 4.8252
 Frc consts  --      0.2779                 0.5683                 0.6534
 IR Inten    --     20.4140                 4.2616                 0.0552
  Atom  AN      X      Y      Z        X      Y      Z        X      Y      Z
     1   6    -0.00  -0.00  -0.08    -0.00  -0.15  -0.00     0.00  -0.00  -0.09
     2   6     0.00  -0.00   0.28     0.07   0.07   0.00    -0.00   0.00  -0.16
     3   6    -0.00   0.00  -0.14     0.01  -0.10   0.00    -0.00   0.00   0.16
     4   7     0.00  -0.00   0.10    -0.03  -0.13   0.00    -0.00   0.00   0.04
     5   6     0.00  -0.00   0.22    -0.17   0.02   0.00     0.00  -0.00  -0.03
     6   1     0.00  -0.00   0.60    -0.18   0.03   0.00     0.00  -0.00  -0.16
     7   6    -0.00   0.00  -0.10    -0.05  -0.02  -0.00    -0.00  -0.00  -0.11
     8   6     0.00  -0.00   0.18     0.10  -0.02   0.00     0.00  -0.00   0.21
     9   1     0.00  -0.00   0.49     0.16   0.02   0.00     0.00  -0.00   0.69
    10   7    -0.00  -0.00  -0.19     0.08  -0.13  -0.00     0.00  -0.00  -0.22
    11   7    -0.00   0.00  -0.08    -0.13  -0.05   0.00     0.00   0.00  -0.07
    12   7    -0.00   0.00  -0.08     0.04  -0.01   0.00    -0.00   0.00   0.02
    13   7     0.00  -0.00   0.02    -0.01  -0.06  -0.00     0.00   0.00   0.25
    14   6     0.00  -0.00   0.14     0.13   0.24  -0.00    -0.00  -0.00  -0.20
    15   8    -0.00  -0.00  -0.08     0.30   0.17  -0.00    -0.00   0.00   0.07
    16   6     0.00   0.00  -0.03    -0.19   0.10   0.00     0.00  -0.00   0.01
    17   1    -0.00   0.00  -0.16    -0.12  -0.28   0.00     0.00  -0.00   0.18
    18   1    -0.11   0.11  -0.08    -0.42   0.18   0.01     0.16  -0.19   0.10
    19   1     0.11  -0.11  -0.08    -0.42   0.18  -0.01    -0.16   0.19   0.10
    20   7     0.00   0.00  -0.14    -0.16   0.02   0.00    -0.00  -0.00   0.14
    21   7    -0.00   0.00  -0.00     0.03   0.02  -0.00     0.00  -0.00  -0.14
                     13                     14                     15
                      A                      A                      A
 Frequencies --    500.2617               504.3640               504.4310
 Red. masses --      8.6436                 4.4214                 9.6216
 Frc consts  --      1.2745                 0.6627                 1.4424
 IR Inten    --     11.5200                 0.3561                13.2837
  Atom  AN      X      Y      Z        X      Y      Z        X      Y      Z
     1   6     0.11   0.22  -0.00    -0.00   0.00   0.17    -0.11   0.01  -0.00
     2   6    -0.09   0.11   0.00    -0.00  -0.00  -0.10    -0.02  -0.07   0.00
     3   6    -0.09  -0.11   0.00     0.00  -0.00  -0.07     0.20  -0.24   0.00
     4   7     0.16   0.01   0.00     0.00  -0.00  -0.00     0.18  -0.05   0.00
     5   6    -0.27  -0.13  -0.00    -0.00   0.00   0.19    -0.04   0.20  -0.00
     6   1    -0.37  -0.09  -0.00    -0.00   0.00   0.64    -0.25   0.31  -0.01
     7   6     0.25  -0.11   0.00     0.00   0.00  -0.08     0.23   0.16   0.00
     8   6     0.01  -0.11   0.00    -0.00   0.00  -0.06    -0.31   0.07   0.00
     9   1    -0.18  -0.24   0.00    -0.00   0.00  -0.26    -0.35   0.06   0.00
    10   7    -0.03   0.15   0.00    -0.00   0.00  -0.02    -0.29  -0.00   0.00
    11   7    -0.26  -0.14   0.00    -0.00  -0.00  -0.21    -0.04  -0.13   0.00
    12   7    -0.11   0.04  -0.00     0.00  -0.00   0.25     0.21  -0.24  -0.00
    13   7     0.10   0.27   0.00    -0.00  -0.00  -0.01    -0.11  -0.06   0.00
    14   6    -0.07  -0.00   0.00    -0.00   0.00  -0.21    -0.01   0.03   0.00
    15   8     0.07  -0.08  -0.00     0.00  -0.00   0.07     0.06  -0.01  -0.00
    16   6     0.03   0.08  -0.00    -0.00   0.00   0.00    -0.03   0.02  -0.00
    17   1    -0.02   0.30  -0.00    -0.00   0.00   0.19    -0.02   0.01  -0.00
    18   1     0.15   0.04  -0.01     0.18  -0.23   0.12    -0.03   0.02   0.00
    19   1     0.15   0.04   0.01    -0.18   0.23   0.12    -0.03   0.02  -0.00
    20   7    -0.02  -0.01   0.00     0.00   0.00  -0.14     0.15   0.30   0.00
    21   7     0.22  -0.21  -0.00    -0.00  -0.00   0.14    -0.06   0.01  -0.00
                     16                     17                     18
                      A                      A                      A
 Frequencies --    518.8201               573.9316               602.7893
 Red. masses --      7.9605                 8.9106                 6.7341
 Frc consts  --      1.2625                 1.7293                 1.4416
 IR Inten    --      8.2932                 2.8932                12.8630
  Atom  AN      X      Y      Z        X      Y      Z        X      Y      Z
     1   6     0.16   0.03  -0.00    -0.04   0.26   0.00    -0.13  -0.09   0.00
     2   6     0.16  -0.06  -0.00     0.04  -0.23   0.00    -0.09   0.04  -0.00
     3   6     0.03   0.16   0.00    -0.03   0.11   0.00     0.15   0.10  -0.00
     4   7     0.10   0.08  -0.00    -0.03   0.12   0.00     0.04  -0.06  -0.00
     5   6    -0.11   0.17   0.00    -0.00  -0.12   0.00     0.00   0.16   0.00
     6   1    -0.01   0.12  -0.00     0.14  -0.20   0.00     0.19   0.07  -0.00
     7   6     0.05  -0.04   0.00     0.01  -0.11   0.00     0.04  -0.11  -0.00
     8   6    -0.09  -0.28  -0.00    -0.05   0.08   0.00     0.08  -0.06  -0.00
     9   1    -0.08  -0.27  -0.00    -0.29  -0.08   0.00     0.00  -0.12  -0.00
    10   7    -0.07  -0.17   0.00    -0.05   0.41  -0.00     0.05  -0.02  -0.00
    11   7    -0.11   0.29   0.00    -0.02   0.12  -0.00     0.01   0.30   0.00
    12   7     0.07  -0.01  -0.00     0.02  -0.29  -0.00     0.16  -0.04  -0.00
    13   7     0.20   0.01  -0.00    -0.05  -0.29   0.00    -0.17  -0.06   0.00
    14   6     0.12  -0.02   0.00     0.13   0.09  -0.00    -0.21  -0.04   0.00
    15   8    -0.18   0.14   0.00     0.09   0.11  -0.00     0.04  -0.18  -0.00
    16   6    -0.01  -0.15  -0.00    -0.03   0.00   0.00    -0.07   0.15   0.00
    17   1     0.06  -0.49  -0.00     0.04  -0.33   0.00    -0.17   0.61   0.00
    18   1    -0.21  -0.08   0.01    -0.23   0.07   0.01     0.20   0.06  -0.01
    19   1    -0.21  -0.08  -0.01    -0.23   0.07  -0.01     0.20   0.06   0.01
    20   7    -0.11   0.09  -0.00    -0.05  -0.18  -0.00    -0.17   0.01   0.00
    21   7    -0.10  -0.21  -0.00     0.10  -0.08   0.00     0.21  -0.10   0.00
                     19                     20                     21
                      A                      A                      A
 Frequencies --    626.9602               627.0117               697.7709
 Red. masses --      4.0980                 7.2720                10.0739
 Frc consts  --      0.9491                 1.6844                 2.8898
 IR Inten    --      2.1580                16.9012                 2.5779
  Atom  AN      X      Y      Z        X      Y      Z        X      Y      Z
     1   6     0.00   0.00   0.14     0.15   0.02  -0.00     0.00   0.00   0.67
     2   6    -0.00  -0.00  -0.30    -0.07  -0.14   0.01     0.00  -0.00   0.15
     3   6    -0.00   0.00   0.16    -0.18   0.11  -0.00    -0.00   0.00  -0.16
     4   7     0.00   0.00  -0.04     0.01   0.13   0.00    -0.00  -0.00  -0.12
     5   6     0.00   0.00   0.05     0.07   0.01  -0.00    -0.00  -0.00  -0.14
     6   1     0.00   0.00   0.14     0.02   0.04  -0.00    -0.00   0.00  -0.36
     7   6     0.00   0.00  -0.13     0.03   0.10   0.00     0.00   0.00  -0.17
     8   6     0.00  -0.00   0.01     0.00  -0.12  -0.00     0.00  -0.00   0.15
     9   1     0.00  -0.00  -0.00     0.10  -0.07   0.00     0.00   0.00   0.24
    10   7     0.00  -0.00  -0.06     0.02  -0.14   0.00    -0.00  -0.00  -0.27
    11   7     0.00   0.00  -0.11     0.03   0.05   0.00     0.00  -0.00   0.16
    12   7    -0.00  -0.00   0.02    -0.19  -0.13  -0.00     0.00  -0.00  -0.03
    13   7     0.00  -0.00   0.03     0.15  -0.13  -0.00    -0.00  -0.00  -0.24
    14   6    -0.00   0.00   0.30    -0.14   0.04  -0.01    -0.00  -0.00  -0.05
    15   8     0.00  -0.00  -0.09     0.16  -0.11   0.00     0.00  -0.00   0.01
    16   6    -0.00   0.00   0.04    -0.16   0.31  -0.00    -0.00   0.00  -0.01
    17   1    -0.00   0.01  -0.30    -0.21   0.53   0.01    -0.00   0.00   0.06
    18   1    -0.30   0.43  -0.18    -0.04   0.25   0.00     0.06  -0.09   0.04
    19   1     0.30  -0.43  -0.18    -0.06   0.27   0.01    -0.06   0.09   0.04
    20   7     0.00   0.00   0.01     0.22   0.05  -0.00     0.00  -0.00   0.18
    21   7    -0.00  -0.00   0.05    -0.17  -0.05  -0.00    -0.00   0.00  -0.08
                     22                     23                     24
                      A                      A                      A
 Frequencies --    709.0718               714.7243               753.2872
 Red. masses --     10.4005                10.1258                12.5045
 Frc consts  --      3.0809                 3.0476                 4.1806
 IR Inten    --      0.4714                 1.0831                42.1761
  Atom  AN      X      Y      Z        X      Y      Z        X      Y      Z
     1   6     0.00   0.00   0.02     0.20   0.16  -0.00     0.00   0.00   0.18
     2   6     0.00   0.00   0.32     0.07  -0.01  -0.00     0.00   0.00   0.03
     3   6     0.00  -0.00   0.61     0.22  -0.14  -0.00     0.00  -0.00   0.29
     4   7    -0.00   0.00  -0.11     0.04  -0.00   0.00    -0.00   0.00  -0.35
     5   6    -0.00  -0.00   0.07    -0.02  -0.07  -0.00     0.00  -0.00   0.16
     6   1     0.00  -0.00   0.03     0.09  -0.13   0.00     0.00  -0.00   0.07
     7   6    -0.00   0.00  -0.33    -0.27  -0.02   0.00    -0.00  -0.00   0.71
     8   6    -0.00   0.00  -0.10    -0.04   0.07   0.00     0.00  -0.00   0.15
     9   1     0.00   0.00  -0.19     0.06   0.13   0.00     0.00  -0.00   0.09
    10   7     0.00  -0.00   0.09     0.02   0.09  -0.00    -0.00  -0.00  -0.13
    11   7    -0.00   0.00  -0.17     0.03  -0.08   0.00    -0.00   0.00  -0.16
    12   7     0.00  -0.00  -0.32     0.31  -0.18  -0.00    -0.00   0.00  -0.09
    13   7     0.00   0.00  -0.15     0.28   0.20  -0.00    -0.00  -0.00  -0.04
    14   6    -0.00  -0.00  -0.12    -0.11  -0.05   0.00    -0.00  -0.00  -0.02
    15   8    -0.00  -0.00   0.04    -0.03  -0.12   0.00    -0.00  -0.00   0.01
    16   6    -0.00   0.00  -0.02    -0.12   0.15   0.00    -0.00  -0.00   0.00
    17   1    -0.00   0.00   0.14    -0.18   0.40   0.00    -0.00   0.00   0.01
    18   1     0.13  -0.20   0.08     0.01   0.11  -0.01     0.00   0.00   0.00
    19   1    -0.13   0.20   0.08     0.01   0.11   0.01    -0.00  -0.00   0.00
    20   7    -0.00  -0.00   0.03    -0.28  -0.13  -0.00    -0.00   0.00  -0.28
    21   7    -0.00   0.00   0.18    -0.29   0.11  -0.00    -0.00   0.00  -0.26
                     25                     26                     27
                      A                      A                      A
 Frequencies --    852.3579               874.0170               896.0315
 Red. masses --      8.4321                 8.5047                 9.5601
 Frc consts  --      3.6094                 3.8278                 4.5223
 IR Inten    --     19.6245                 9.3099                 4.2292
  Atom  AN      X      Y      Z        X      Y      Z        X      Y      Z
     1   6     0.02   0.11  -0.00     0.13   0.00  -0.00     0.03  -0.08  -0.00
     2   6     0.02   0.02  -0.00     0.13  -0.11  -0.00     0.30   0.07  -0.00
     3   6     0.02  -0.10   0.00    -0.09   0.06   0.00     0.16   0.04  -0.00
     4   7    -0.13  -0.03   0.00     0.01  -0.19  -0.00    -0.00   0.08   0.00
     5   6     0.09   0.34   0.00     0.12   0.10  -0.00    -0.19  -0.22   0.00
     6   1    -0.08   0.44   0.00     0.21   0.06   0.00    -0.29  -0.18  -0.00
     7   6    -0.04   0.00  -0.00     0.05  -0.05   0.00     0.11   0.02  -0.00
     8   6     0.10  -0.30  -0.00    -0.23   0.22   0.00    -0.05   0.05  -0.00
     9   1    -0.07  -0.42   0.00    -0.35   0.17  -0.00    -0.06   0.05   0.00
    10   7     0.12   0.28  -0.00    -0.23  -0.09   0.00    -0.01   0.10   0.00
    11   7     0.18  -0.28  -0.00     0.15  -0.07  -0.00    -0.18  -0.03   0.00
    12   7    -0.06   0.14   0.00    -0.18   0.14   0.00     0.14   0.40   0.00
    13   7    -0.01  -0.15   0.00     0.20  -0.07  -0.00    -0.02  -0.36   0.00
    14   6     0.01  -0.01  -0.00     0.07  -0.09  -0.00     0.02  -0.14  -0.00
    15   8    -0.01  -0.02   0.00    -0.03  -0.06   0.00    -0.10  -0.12   0.00
    16   6    -0.01   0.02   0.00    -0.05   0.17   0.00    -0.11   0.15   0.00
    17   1    -0.01   0.03  -0.00    -0.02  -0.02  -0.00    -0.16   0.32   0.00
    18   1    -0.01   0.02  -0.00    -0.22   0.21   0.02    -0.06   0.14  -0.01
    19   1    -0.01   0.02   0.00    -0.22   0.21  -0.02    -0.06   0.14   0.01
    20   7    -0.15   0.17   0.00    -0.25  -0.01   0.00     0.12  -0.01  -0.00
    21   7    -0.09  -0.19  -0.00     0.29   0.05  -0.00    -0.12   0.00   0.00
                     28                     29                     30
                      A                      A                      A
 Frequencies --    964.1583               970.2462               976.0670
 Red. masses --      2.6707                 1.4016                 1.3821
 Frc consts  --      1.4628                 0.7774                 0.7758
 IR Inten    --     86.9468                 1.8090                 4.1999
  Atom  AN      X      Y      Z        X      Y      Z        X      Y      Z
     1   6    -0.09  -0.03   0.00    -0.00  -0.00  -0.01     0.00  -0.00   0.03
     2   6    -0.00  -0.12  -0.00     0.00  -0.00   0.00     0.00  -0.00  -0.00
     3   6    -0.00  -0.05  -0.00     0.00  -0.00   0.03    -0.00   0.00   0.00
     4   7    -0.03   0.04  -0.00    -0.00   0.00  -0.00     0.00  -0.00  -0.01
     5   6     0.03  -0.03   0.00    -0.00  -0.00  -0.18     0.00  -0.00  -0.03
     6   1    -0.00  -0.01  -0.00     0.00  -0.00   0.97     0.00  -0.00   0.18
     7   6    -0.03  -0.04  -0.00    -0.00  -0.00   0.02     0.00  -0.00   0.03
     8   6    -0.00  -0.08  -0.00     0.00  -0.00   0.04    -0.00   0.00  -0.17
     9   1     0.00  -0.08   0.00     0.00  -0.00  -0.17     0.00  -0.00   0.97
    10   7     0.05   0.02  -0.00     0.00   0.00  -0.01    -0.00  -0.00   0.02
    11   7    -0.02   0.03  -0.00    -0.00   0.00   0.02    -0.00   0.00   0.00
    12   7     0.03   0.01   0.00     0.00   0.00  -0.01    -0.00  -0.00   0.00
    13   7    -0.06   0.14   0.00    -0.00   0.00  -0.00    -0.00   0.00  -0.01
    14   6     0.12  -0.10  -0.00     0.00  -0.00  -0.00    -0.00  -0.00   0.00
    15   8    -0.04  -0.09   0.00    -0.00  -0.00   0.00     0.00   0.00  -0.00
    16   6     0.06   0.18  -0.00     0.00   0.00   0.00    -0.00  -0.00  -0.00
    17   1     0.18  -0.47  -0.00     0.00  -0.00  -0.00    -0.00   0.00   0.00
    18   1    -0.45   0.30   0.06    -0.00   0.00  -0.00     0.00  -0.01   0.00
    19   1    -0.45   0.30  -0.06     0.00  -0.00  -0.00    -0.00   0.01   0.00
    20   7     0.04   0.05  -0.00     0.00   0.00   0.03     0.00  -0.00  -0.00
    21   7     0.02   0.04   0.00     0.00   0.00  -0.02     0.00   0.00   0.03
                     31                     32                     33
                      A                      A                      A
 Frequencies --   1035.2246              1045.2776              1053.2464
 Red. masses --      7.1449                 1.7052                 4.7205
 Frc consts  --      4.5114                 1.0977                 3.0853
 IR Inten    --     38.3124                 2.4792                37.5197
  Atom  AN      X      Y      Z        X      Y      Z        X      Y      Z
     1   6    -0.06   0.02   0.00     0.00   0.00   0.00     0.01   0.12   0.00
     2   6     0.06  -0.25  -0.00    -0.00   0.00  -0.04    -0.16   0.19   0.00
     3   6     0.02   0.04  -0.00     0.00   0.00   0.01     0.05   0.06  -0.00
     4   7    -0.04   0.37   0.00     0.00   0.00  -0.00     0.11   0.19  -0.00
     5   6     0.04  -0.18  -0.00    -0.00  -0.00  -0.00    -0.06  -0.03   0.00
     6   1    -0.07  -0.12   0.00    -0.00  -0.00   0.01    -0.01  -0.07  -0.00
     7   6    -0.02   0.01  -0.00     0.00   0.00   0.00     0.05   0.13   0.00
     8   6    -0.06  -0.20  -0.00     0.00   0.00   0.00     0.12   0.06  -0.00
     9   1    -0.01  -0.17  -0.00     0.00   0.00  -0.02     0.23   0.13   0.00
    10   7    -0.03  -0.14   0.00    -0.00  -0.00  -0.00    -0.06  -0.16   0.00
    11   7     0.06  -0.17  -0.00     0.00  -0.00  -0.00     0.09  -0.11  -0.00
    12   7     0.10   0.07  -0.00     0.00   0.00  -0.00     0.02  -0.04  -0.00
    13   7    -0.07   0.04   0.00    -0.00  -0.00   0.00    -0.06  -0.14   0.00
    14   6    -0.03   0.05  -0.00     0.00  -0.00   0.19    -0.00  -0.01  -0.00
    15   8     0.05   0.07  -0.00    -0.00  -0.00  -0.03    -0.03  -0.07   0.00
    16   6    -0.10  -0.08   0.00    -0.00   0.00  -0.16     0.13   0.06   0.00
    17   1    -0.20   0.43   0.00     0.00  -0.00   0.33     0.26  -0.55  -0.00
    18   1     0.30  -0.15  -0.06     0.28  -0.56   0.16    -0.32   0.14   0.07
    19   1     0.30  -0.15   0.06    -0.28   0.56   0.16    -0.32   0.14  -0.07
    20   7    -0.17   0.13   0.00    -0.00   0.00  -0.00    -0.16  -0.05  -0.00
    21   7     0.20   0.14   0.00     0.00  -0.00  -0.00    -0.01  -0.07   0.00
                     34                     35                     36
                      A                      A                      A
 Frequencies --   1070.5247              1146.5006              1195.6067
 Red. masses --      9.0007                 9.1206                 9.8258
 Frc consts  --      6.0774                 7.0636                 8.2755
 IR Inten    --     25.6414                24.9098                19.6819
  Atom  AN      X      Y      Z        X      Y      Z        X      Y      Z
     1   6     0.08  -0.04   0.00    -0.05  -0.27   0.00    -0.10  -0.22   0.00
     2   6    -0.27  -0.25   0.00     0.29   0.03  -0.00    -0.04  -0.13   0.00
     3   6     0.04  -0.11   0.00    -0.04   0.28   0.00     0.09  -0.41  -0.00
     4   7     0.32  -0.08  -0.00     0.18   0.03  -0.00     0.03   0.40   0.00
     5   6     0.16  -0.17  -0.00     0.10  -0.06   0.00    -0.03   0.29   0.00
     6   1     0.39  -0.28   0.00     0.05  -0.05  -0.00     0.31   0.13  -0.00
     7   6     0.18  -0.11  -0.00     0.16   0.03  -0.00     0.01   0.02   0.00
     8   6    -0.06   0.01   0.00     0.16   0.13   0.00    -0.00   0.24   0.00
     9   1     0.11   0.13  -0.00     0.12   0.11  -0.00    -0.10   0.19   0.00
    10   7     0.11   0.09  -0.00    -0.02   0.11  -0.00     0.04  -0.00  -0.00
    11   7    -0.02   0.12   0.00     0.02  -0.14  -0.00    -0.02   0.07   0.00
    12   7    -0.11   0.24   0.00    -0.15  -0.21   0.00    -0.13   0.11   0.00
    13   7    -0.06  -0.06   0.00    -0.19   0.20   0.00     0.08   0.05  -0.00
    14   6    -0.09   0.11   0.00     0.16  -0.13  -0.00     0.09  -0.03  -0.00
    15   8     0.08   0.05  -0.00    -0.04   0.02   0.00     0.01   0.04  -0.00
    16   6     0.07  -0.05  -0.00    -0.12   0.03   0.00    -0.07  -0.01   0.00
    17   1     0.11  -0.25  -0.00    -0.21   0.45   0.00    -0.12   0.24   0.00
    18   1    -0.01  -0.06   0.02     0.11   0.05  -0.07     0.11  -0.01  -0.05
    19   1    -0.01  -0.06  -0.02     0.11   0.05   0.07     0.11  -0.01   0.05
    20   7    -0.22   0.13   0.00    -0.18   0.07   0.00     0.01  -0.29  -0.00
    21   7    -0.26   0.07  -0.00    -0.18  -0.16  -0.00    -0.01  -0.21   0.00
                     37                     38                     39
                      A                      A                      A
 Frequencies --   1212.0109              1252.6913              1265.2504
 Red. masses --      4.3792                 4.0899                 5.9022
 Frc consts  --      3.7902                 3.7814                 5.5670
 IR Inten    --    227.8307               134.5801                28.2362
  Atom  AN      X      Y      Z        X      Y      Z        X      Y      Z
     1   6    -0.07   0.31  -0.00     0.01  -0.12   0.00    -0.07   0.03   0.00
     2   6     0.02   0.01  -0.00    -0.03   0.22   0.00    -0.16  -0.01   0.00
     3   6    -0.04  -0.14  -0.00    -0.03  -0.17  -0.00    -0.08   0.09   0.00
     4   7    -0.01  -0.08   0.00     0.03   0.02  -0.00     0.36  -0.03  -0.00
     5   6     0.01   0.04   0.00     0.06  -0.15  -0.00    -0.10   0.01   0.00
     6   1     0.25  -0.08  -0.00     0.47  -0.37  -0.00    -0.53   0.24   0.00
     7   6     0.14  -0.02   0.00    -0.05   0.23   0.00    -0.37  -0.06  -0.00
     8   6     0.07  -0.07  -0.00    -0.05  -0.14   0.00    -0.04   0.02  -0.00
     9   1     0.49   0.19  -0.00    -0.42  -0.40   0.00    -0.21  -0.09   0.00
    10   7    -0.01  -0.12   0.00    -0.00   0.09  -0.00     0.06  -0.00  -0.00
    11   7     0.01   0.07   0.00     0.01   0.11   0.00     0.09  -0.04  -0.00
    12   7    -0.04   0.01   0.00    -0.07  -0.07   0.00     0.03   0.06   0.00
    13   7    -0.10  -0.02   0.00     0.06  -0.06  -0.00    -0.01  -0.06   0.00
    14   6     0.24  -0.11  -0.00     0.10  -0.05  -0.00     0.21  -0.07  -0.00
    15   8    -0.04   0.02   0.00    -0.03  -0.00   0.00    -0.02   0.02   0.00
    16   6    -0.12   0.00   0.00    -0.03   0.00   0.00    -0.08  -0.01   0.00
    17   1    -0.22   0.50   0.00    -0.06   0.16   0.00    -0.16   0.37   0.00
    18   1     0.13   0.06  -0.10     0.02   0.04  -0.04     0.09   0.06  -0.09
    19   1     0.13   0.06   0.10     0.02   0.04   0.04     0.09   0.06   0.09
    20   7    -0.02  -0.06  -0.00    -0.07   0.06   0.00     0.08   0.03   0.00
    21   7    -0.06   0.10   0.00     0.07   0.05   0.00     0.05  -0.04   0.00
                     40                     41                     42
                      A                      A                      A
 Frequencies --   1305.6573              1336.7599              1349.4645
 Red. masses --      9.2987                10.8000                 9.5909
 Frc consts  --      9.3396                11.3705                10.2904
 IR Inten    --    112.8795                51.7799                74.8455
  Atom  AN      X      Y      Z        X      Y      Z        X      Y      Z
     1   6     0.07   0.01  -0.00     0.07   0.00  -0.00     0.19  -0.00  -0.00
     2   6     0.24  -0.01  -0.00    -0.22  -0.28   0.00    -0.17   0.23   0.00
     3   6     0.09  -0.04  -0.00     0.20   0.01  -0.00     0.02  -0.01  -0.00
     4   7     0.29   0.01   0.00    -0.16  -0.15   0.00    -0.11   0.15   0.00
     5   6     0.17   0.18  -0.00     0.03  -0.16  -0.00     0.42   0.01  -0.00
     6   1     0.28   0.13  -0.00     0.01  -0.17   0.00     0.24   0.14  -0.00
     7   6    -0.22   0.03  -0.00    -0.15   0.28   0.00    -0.11  -0.36  -0.00
     8   6     0.20  -0.21  -0.00     0.43   0.09  -0.00    -0.02   0.13  -0.00
     9   1     0.17  -0.25  -0.00     0.27  -0.04  -0.00     0.09   0.22   0.00
    10   7    -0.28   0.05   0.00    -0.39   0.04   0.00    -0.02  -0.06   0.00
    11   7    -0.25  -0.05   0.00    -0.05   0.06   0.00    -0.38  -0.09   0.00
    12   7    -0.16   0.02   0.00     0.05   0.14  -0.00     0.07  -0.06  -0.00
    13   7    -0.14  -0.03   0.00     0.07   0.06  -0.00    -0.00  -0.09   0.00
    14   6    -0.18   0.04   0.00     0.11  -0.01  -0.00     0.15  -0.04  -0.00
    15   8     0.02  -0.01  -0.00     0.02   0.03  -0.00    -0.03  -0.00   0.00
    16   6     0.06   0.02  -0.00    -0.05  -0.02   0.00    -0.02  -0.03   0.00
    17   1     0.12  -0.28  -0.00    -0.09   0.17   0.00    -0.08   0.26   0.00
    18   1    -0.06  -0.07   0.09     0.08   0.05  -0.08    -0.03   0.14  -0.10
    19   1    -0.06  -0.07  -0.09     0.08   0.05   0.08    -0.03   0.14   0.10
    20   7     0.06  -0.21  -0.00     0.04   0.13   0.00     0.02   0.21   0.00
    21   7     0.05   0.24  -0.00     0.04  -0.25   0.00     0.04  -0.07   0.00
                     43                     44                     45
                      A                      A                      A
 Frequencies --   1414.2759              1434.3795              1444.4741
 Red. masses --      1.3551                 2.5029                 1.6160
 Frc consts  --      1.5970                 3.0340                 1.9866
 IR Inten    --     24.2055                28.9247                27.7512
  Atom  AN      X      Y      Z        X      Y      Z        X      Y      Z
     1   6     0.03  -0.03  -0.00    -0.10   0.07   0.00     0.02   0.06  -0.00
     2   6    -0.03  -0.01   0.00     0.16  -0.00  -0.00    -0.01  -0.05   0.00
     3   6     0.03   0.03  -0.00    -0.11  -0.08   0.00    -0.03   0.06   0.00
     4   7    -0.01  -0.00   0.00     0.05  -0.00  -0.00     0.00  -0.03  -0.00
     5   6    -0.01   0.02   0.00    -0.02  -0.03  -0.00    -0.02   0.06   0.00
     6   1    -0.10   0.06   0.00     0.52  -0.31  -0.00     0.61  -0.27  -0.00
     7   6     0.03   0.01   0.00    -0.11   0.00  -0.00    -0.00   0.06   0.00
     8   6    -0.00  -0.02   0.00    -0.01   0.04   0.00     0.01   0.06  -0.00
     9   1    -0.10  -0.08   0.00     0.45   0.35  -0.00    -0.61  -0.35   0.00
    10   7    -0.01   0.01  -0.00     0.01  -0.01   0.00     0.07  -0.06  -0.00
    11   7     0.00  -0.01  -0.00     0.01   0.01   0.00    -0.07  -0.07   0.00
    12   7    -0.00   0.00  -0.00     0.02   0.01  -0.00     0.06   0.02  -0.00
    13   7    -0.01   0.01   0.00     0.02  -0.01  -0.00    -0.06   0.02   0.00
    14   6    -0.01   0.01   0.00    -0.11   0.04   0.00     0.01   0.00  -0.00
    15   8     0.01   0.01  -0.00     0.00  -0.01  -0.00     0.00  -0.00   0.00
    16   6     0.07  -0.12  -0.00     0.07  -0.06  -0.00    -0.00   0.00   0.00
    17   1    -0.07   0.51   0.00     0.00   0.21   0.00    -0.00  -0.01   0.00
    18   1    -0.34   0.41  -0.23    -0.23   0.10  -0.02     0.01  -0.00  -0.00
    19   1    -0.34   0.41   0.23    -0.23   0.10   0.02     0.01  -0.00   0.00
    20   7    -0.00  -0.04  -0.00     0.02   0.12   0.00     0.02  -0.02  -0.00
    21   7    -0.01   0.04  -0.00     0.03  -0.13  -0.00    -0.02  -0.02   0.00
                     46                     47                     48
                      A                      A                      A
 Frequencies --   1477.8329              1492.0922              1500.0794
 Red. masses --      1.9290                 1.1189                 1.0478
 Frc consts  --      2.4822                 1.4677                 1.3891
 IR Inten    --      7.5899                 8.2406                 8.8380
  Atom  AN      X      Y      Z        X      Y      Z        X      Y      Z
     1   6     0.02  -0.09   0.00     0.01  -0.02  -0.00    -0.00  -0.00  -0.00
     2   6    -0.11  -0.00   0.00    -0.04  -0.00   0.00    -0.00   0.00   0.00
     3   6     0.02   0.10   0.00     0.01   0.02   0.00     0.00   0.00  -0.00
     4   7     0.00  -0.00  -0.00    -0.00   0.00  -0.00    -0.00   0.00  -0.00
     5   6    -0.09   0.07   0.00    -0.02   0.02   0.00     0.00  -0.00   0.00
     6   1     0.56  -0.27  -0.00     0.08  -0.04  -0.00    -0.00   0.00  -0.00
     7   6     0.02   0.01   0.00     0.01  -0.00   0.00     0.00   0.00  -0.00
     8   6    -0.08  -0.08   0.00    -0.01  -0.02   0.00    -0.00  -0.00  -0.00
     9   1     0.55   0.33  -0.00     0.07   0.04  -0.00     0.00   0.00   0.00
    10   7    -0.02   0.07  -0.00    -0.01   0.01   0.00     0.00   0.00   0.00
    11   7    -0.02  -0.08  -0.00    -0.00  -0.01  -0.00    -0.00  -0.00   0.00
    12   7     0.03   0.00  -0.00     0.01   0.00  -0.00     0.00  -0.00   0.00
    13   7     0.03   0.00  -0.00     0.00   0.00  -0.00     0.00   0.00   0.00
    14   6     0.05  -0.01  -0.00     0.03  -0.03  -0.00    -0.00  -0.00  -0.02
    15   8    -0.00  -0.00   0.00     0.01   0.03  -0.00     0.00   0.00   0.00
    16   6    -0.03   0.00   0.00     0.04   0.02  -0.00    -0.00   0.00  -0.06
    17   1     0.00  -0.14  -0.00    -0.06   0.42   0.00     0.00  -0.00   0.73
    18   1     0.15   0.12  -0.13    -0.33  -0.39   0.38    -0.47   0.06   0.06
    19   1     0.15   0.12   0.13    -0.33  -0.39  -0.38     0.47  -0.06   0.06
    20   7     0.03  -0.04  -0.00     0.00  -0.01  -0.00    -0.00   0.00   0.00
    21   7     0.03   0.04  -0.00     0.00   0.01  -0.00     0.00  -0.00   0.00
                     49                     50                     51
                      A                      A                      A
 Frequencies --   1523.4873              1552.1521              1581.6003
 Red. masses --      4.8261                12.4311                10.5769
 Frc consts  --      6.5997                17.6453                15.5885
 IR Inten    --     72.3530                10.7534                 6.9105
  Atom  AN      X      Y      Z        X      Y      Z        X      Y      Z
     1   6     0.07   0.04  -0.00    -0.47   0.17   0.00     0.49   0.07  -0.00
     2   6     0.00  -0.06  -0.00    -0.00   0.01  -0.00     0.08  -0.01  -0.00
     3   6    -0.07   0.02   0.00     0.60   0.19  -0.00     0.36  -0.08  -0.00
     4   7     0.01  -0.07  -0.00    -0.01  -0.07   0.00    -0.08   0.02   0.00
     5   6     0.21  -0.02  -0.00     0.08  -0.06  -0.00    -0.21  -0.05   0.00
     6   1    -0.49   0.35   0.00     0.06  -0.07  -0.00     0.15  -0.26  -0.00
     7   6    -0.02   0.33   0.00    -0.05   0.08   0.00    -0.20  -0.03  -0.00
     8   6    -0.20  -0.03   0.00    -0.12  -0.02   0.00    -0.18   0.03   0.00
     9   1     0.41   0.37  -0.00    -0.02   0.03   0.00     0.13   0.27  -0.00
    10   7     0.14   0.00  -0.00     0.21  -0.09  -0.00     0.10  -0.04  -0.00
    11   7    -0.15  -0.00   0.00    -0.18  -0.09   0.00     0.15   0.07  -0.00
    12   7     0.09   0.03  -0.00    -0.36  -0.06   0.00    -0.27  -0.06   0.00
    13   7    -0.10   0.02   0.00     0.27  -0.02  -0.00    -0.38   0.05   0.00
    14   6     0.00   0.00  -0.00    -0.02  -0.04   0.00    -0.01  -0.07   0.00
    15   8    -0.00  -0.00   0.00     0.02   0.04  -0.00     0.02   0.04  -0.00
    16   6    -0.00   0.00   0.00     0.01  -0.00  -0.00    -0.00   0.01   0.00
    17   1    -0.00   0.02  -0.00    -0.00   0.05  -0.00     0.01  -0.04   0.00
    18   1    -0.01  -0.01   0.01    -0.05   0.00   0.01     0.01   0.01  -0.00
    19   1    -0.01  -0.01  -0.01    -0.05   0.00  -0.01     0.01   0.01   0.00
    20   7    -0.06  -0.15  -0.00     0.01   0.03   0.00     0.07   0.10   0.00
    21   7     0.07  -0.14  -0.00     0.02  -0.03  -0.00     0.08  -0.08  -0.00
                     52                     53                     54
                      A                      A                      A
 Frequencies --   1729.7330              3060.4837              3119.3460
 Red. masses --     10.5704                 1.0369                 1.0996
 Frc consts  --     18.6338                 5.7225                 6.3039
 IR Inten    --    243.6563                 1.7556                 8.9764
  Atom  AN      X      Y      Z        X      Y      Z        X      Y      Z
     1   6     0.02  -0.01   0.00     0.00   0.00  -0.00    -0.00  -0.00  -0.00
     2   6     0.04  -0.05  -0.00     0.00   0.00  -0.00     0.00  -0.00   0.00
     3   6     0.06   0.02  -0.00    -0.00  -0.00  -0.00     0.00   0.00   0.00
     4   7    -0.01  -0.00  -0.00    -0.00   0.00   0.00    -0.00   0.00  -0.00
     5   6    -0.01   0.01   0.00     0.00  -0.00  -0.00    -0.00  -0.00  -0.00
     6   1     0.01  -0.01  -0.00    -0.00  -0.00  -0.00     0.00   0.00   0.00
     7   6    -0.00  -0.00   0.00    -0.00  -0.00  -0.00     0.00   0.00   0.00
     8   6    -0.02  -0.01  -0.00    -0.00  -0.00   0.00    -0.00   0.00   0.00
     9   1     0.01   0.01   0.00    -0.00   0.00   0.00     0.00  -0.00  -0.00
    10   7     0.01   0.00   0.00     0.00   0.00   0.00    -0.00   0.00  -0.00
    11   7     0.00  -0.00  -0.00    -0.00   0.00   0.00    -0.00  -0.00   0.00
    12   7    -0.07  -0.02   0.00     0.00   0.00  -0.00    -0.00   0.00   0.00
    13   7    -0.02   0.02   0.00    -0.00   0.00   0.00    -0.00   0.00  -0.00
    14   6     0.29   0.68  -0.00     0.00  -0.00  -0.00    -0.00  -0.00  -0.00
    15   8    -0.22  -0.42   0.00    -0.00  -0.00   0.00     0.00   0.00  -0.00
    16   6    -0.00  -0.06   0.00    -0.01   0.05   0.00    -0.00   0.00  -0.09
    17   1    -0.06   0.30   0.00     0.41   0.10  -0.00     0.00   0.00  -0.02
    18   1    -0.01  -0.21   0.12    -0.15  -0.34  -0.52     0.17   0.40   0.56
    19   1    -0.01  -0.21  -0.12    -0.15  -0.34   0.52    -0.17  -0.40   0.56
    20   7     0.01  -0.01  -0.00    -0.00   0.00   0.00    -0.00  -0.00   0.00
    21   7     0.00   0.01   0.00     0.00   0.00   0.00     0.00   0.00  -0.00
                     55                     56                     57
                      A                      A                      A
 Frequencies --   3169.2350              3218.6346              3219.0290
 Red. masses --      1.1033                 1.0916                 1.0915
 Frc consts  --      6.5289                 6.6626                 6.6636
 IR Inten    --     16.8248                11.7818                 4.6437
  Atom  AN      X      Y      Z        X      Y      Z        X      Y      Z
     1   6    -0.00   0.00  -0.00    -0.00   0.00   0.00     0.00  -0.00  -0.00
     2   6     0.00  -0.00  -0.00    -0.00   0.00   0.00     0.00   0.00  -0.00
     3   6     0.00   0.00   0.00     0.00   0.00   0.00     0.00   0.00  -0.00
     4   7    -0.00  -0.00   0.00     0.00  -0.00   0.00    -0.00  -0.00  -0.00
     5   6    -0.00  -0.00   0.00    -0.01  -0.02   0.00    -0.04  -0.07  -0.00
     6   1     0.00   0.00  -0.00     0.13   0.24   0.00     0.45   0.85   0.00
     7   6    -0.00   0.00   0.00    -0.00   0.00   0.00     0.00   0.00   0.00
     8   6    -0.00   0.00   0.00     0.05  -0.07  -0.00    -0.01   0.02   0.00
     9   1     0.00  -0.00  -0.00    -0.53   0.80   0.00     0.15  -0.22  -0.00
    10   7     0.00  -0.00  -0.00    -0.00   0.00   0.00    -0.00  -0.00   0.00
    11   7     0.00  -0.00  -0.00     0.00   0.00  -0.00     0.00   0.00  -0.00
    12   7    -0.00   0.00  -0.00    -0.00  -0.00  -0.00    -0.00  -0.00   0.00
    13   7     0.00  -0.00  -0.00     0.00  -0.00  -0.00    -0.00   0.00   0.00
    14   6    -0.00  -0.00   0.00     0.00   0.00  -0.00    -0.00  -0.00   0.00
    15   8     0.00   0.00  -0.00    -0.00  -0.00   0.00     0.00   0.00  -0.00
    16   6    -0.08  -0.04   0.00    -0.00  -0.00  -0.00     0.00   0.00   0.00
    17   1     0.89   0.19  -0.00     0.00   0.00  -0.00    -0.00  -0.00   0.00
    18   1     0.06   0.15   0.24    -0.00   0.00   0.00    -0.00  -0.00  -0.00
    19   1     0.06   0.15  -0.24    -0.00   0.00  -0.00    -0.00  -0.00   0.00
    20   7     0.00  -0.00  -0.00     0.00  -0.00  -0.00     0.00   0.00  -0.00
    21   7    -0.00  -0.00  -0.00    -0.00   0.00   0.00    -0.00  -0.00   0.00

 -------------------
 - Thermochemistry -
 -------------------
 Temperature   298.150 Kelvin.  Pressure   1.00000 Atm.
 Atom     1 has atomic number  6 and mass  12.00000
 Atom     2 has atomic number  6 and mass  12.00000
 Atom     3 has atomic number  6 and mass  12.00000
 Atom     4 has atomic number  7 and mass  14.00307
 Atom     5 has atomic number  6 and mass  12.00000
 Atom     6 has atomic number  1 and mass   1.00783
 Atom     7 has atomic number  6 and mass  12.00000
 Atom     8 has atomic number  6 and mass  12.00000
 Atom     9 has atomic number  1 and mass   1.00783
 Atom    10 has atomic number  7 and mass  14.00307
 Atom    11 has atomic number  7 and mass  14.00307
 Atom    12 has atomic number  7 and mass  14.00307
 Atom    13 has atomic number  7 and mass  14.00307
 Atom    14 has atomic number  6 and mass  12.00000
 Atom    15 has atomic number  8 and mass  15.99491
 Atom    16 has atomic number  6 and mass  12.00000
 Atom    17 has atomic number  1 and mass   1.00783
 Atom    18 has atomic number  1 and mass   1.00783
 Atom    19 has atomic number  1 and mass   1.00783
 Atom    20 has atomic number  7 and mass  14.00307
 Atom    21 has atomic number  7 and mass  14.00307
 Molecular mass:   215.05556 amu.
 Principal axes and moments of inertia in atomic units:
                           1         2         3
     Eigenvalues --  1671.750664140.622735801.27550
           X            0.99967  -0.02565   0.00006
           Y            0.02565   0.99967  -0.00002
           Z           -0.00006   0.00002   1.00000
 This molecule is an asymmetric top.
 Rotational symmetry number  1.
 Warning -- assumption of classical behavior for rotation
           may cause significant error
 Rotational temperatures (Kelvin)      0.05181     0.02092     0.01493
 Rotational constants (GHZ):           1.07955     0.43586     0.31109
 Zero-point vibrational energy     363494.2 (Joules/Mol)
                                   86.87719 (Kcal/Mol)
 Warning -- explicit consideration of  18 degrees of freedom as
           vibrations may cause significant error
 Vibrational temperatures:     88.48   110.86   171.18   199.56   217.21
          (Kelvin)            235.30   255.53   443.87   445.62   465.60
                              561.92   689.76   719.77   725.67   725.76
                              746.47   825.76   867.28   902.06   902.13
                             1003.94  1020.20  1028.33  1083.81  1226.35
                             1257.52  1289.19  1387.21  1395.97  1404.34
                             1489.46  1503.92  1515.39  1540.25  1649.56
                             1720.21  1743.81  1802.34  1820.41  1878.55
                             1923.30  1941.58  2034.83  2063.75  2078.28
                             2126.27  2146.79  2158.28  2191.96  2233.20
                             2275.57  2488.70  4403.35  4488.04  4559.82
                             4630.90  4631.46
 
 Zero-point correction=                           0.138448 (Hartree/Particle)
 Thermal correction to Energy=                    0.150365
 Thermal correction to Enthalpy=                  0.151309
 Thermal correction to Gibbs Free Energy=         0.098689
 Sum of electronic and zero-point Energies=           -766.112138
 Sum of electronic and thermal Energies=              -766.100221
 Sum of electronic and thermal Enthalpies=            -766.099276
 Sum of electronic and thermal Free Energies=         -766.151897
 
                     E (Thermal)             CV                S
                      KCal/Mol        Cal/Mol-Kelvin    Cal/Mol-Kelvin
 Total                   94.355             45.582            110.749
 Electronic               0.000              0.000              2.183
 Translational            0.889              2.981             42.000
 Rotational               0.889              2.981             32.063
 Vibrational             92.578             39.621             34.503
 Vibration     1          0.597              1.973              4.409
 Vibration     2          0.599              1.964              3.965
 Vibration     3          0.609              1.934              3.117
 Vibration     4          0.614              1.915              2.822
 Vibration     5          0.618              1.902              2.660
 Vibration     6          0.623              1.887              2.508
 Vibration     7          0.628              1.870              2.353
 Vibration     8          0.698              1.658              1.370
 Vibration     9          0.699              1.655              1.364
 Vibration    10          0.708              1.628              1.292
 Vibration    11          0.758              1.490              0.998
 Vibration    12          0.836              1.296              0.712
 Vibration    13          0.856              1.249              0.657
 Vibration    14          0.860              1.240              0.647
 Vibration    15          0.860              1.240              0.647
 Vibration    16          0.874              1.208              0.613
 Vibration    17          0.930              1.088              0.497
 Vibration    18          0.961              1.026              0.445
                       Q            Log10(Q)             Ln(Q)
 Total Bot       0.403995D-45        -45.393624       -104.522681
 Total V=0       0.194000D+19         18.287801         42.109218
 Vib (Bot)       0.478905D-60        -60.319751       -138.891359
 Vib (Bot)    1  0.335735D+01          0.525996          1.211151
 Vib (Bot)    2  0.267409D+01          0.427176          0.983610
 Vib (Bot)    3  0.171804D+01          0.235033          0.541183
 Vib (Bot)    4  0.146654D+01          0.166293          0.382904
 Vib (Bot)    5  0.134277D+01          0.128001          0.294734
 Vib (Bot)    6  0.123483D+01          0.091609          0.210937
 Vib (Bot)    7  0.113184D+01          0.053785          0.123844
 Vib (Bot)    8  0.613466D+00         -0.212209         -0.488630
 Vib (Bot)    9  0.610619D+00         -0.214229         -0.493282
 Vib (Bot)   10  0.579640D+00         -0.236842         -0.545348
 Vib (Bot)   11  0.459497D+00         -0.337717         -0.777623
 Vib (Bot)   12  0.349035D+00         -0.457132         -1.052584
 Vib (Bot)   13  0.328457D+00         -0.483521         -1.113348
 Vib (Bot)   14  0.324597D+00         -0.488655         -1.125170
 Vib (Bot)   15  0.324535D+00         -0.488739         -1.125363
 Vib (Bot)   16  0.311453D+00         -0.506607         -1.166506
 Vib (Bot)   17  0.267117D+00         -0.573298         -1.320068
 Vib (Bot)   18  0.247003D+00         -0.607297         -1.398354
 Vib (V=0)       0.229972D+04          3.361674          7.740540
 Vib (V=0)    1  0.389437D+01          0.590438          1.359533
 Vib (V=0)    2  0.322044D+01          0.507915          1.169517
 Vib (V=0)    3  0.228932D+01          0.359706          0.828254
 Vib (V=0)    4  0.204943D+01          0.311633          0.717562
 Vib (V=0)    5  0.193284D+01          0.286196          0.658990
 Vib (V=0)    6  0.183222D+01          0.262978          0.605530
 Vib (V=0)    7  0.173736D+01          0.239890          0.552367
 Vib (V=0)    8  0.129142D+01          0.111066          0.255740
 Vib (V=0)    9  0.128921D+01          0.110324          0.254031
 Vib (V=0)   10  0.126549D+01          0.102260          0.235463
 Vib (V=0)   11  0.117907D+01          0.071540          0.164727
 Vib (V=0)   12  0.110977D+01          0.045235          0.104157
 Vib (V=0)   13  0.109823D+01          0.040695          0.093704
 Vib (V=0)   14  0.109612D+01          0.039860          0.091780
 Vib (V=0)   15  0.109609D+01          0.039846          0.091749
 Vib (V=0)   16  0.108907D+01          0.037056          0.085324
 Vib (V=0)   17  0.106688D+01          0.028115          0.064737
 Vib (V=0)   18  0.105768D+01          0.024356          0.056081
 Electronic      0.300000D+01          0.477121          1.098612
 Translational   0.123960D+09          8.093280         18.635466
 Rotational      0.226843D+07          6.355726         14.634600
 
                                                         Title Card Required
                                                             IR Spectrum
 
     333 3  3                                                   1    111111111 1111111 11111                                         
     221 1  0                                                   7    555544444 3332221 10000999  888  7776666555554  3333   11111    
     116 1  6                                                   3    852097431 4306519 47543776  975  5109220710007  9210   7653176  
     999 9  0                                                   0    223028444 9765326 71355604  642  3598773494409  1409   8419971  
 
     XXX X  X                                                   X    XXXXXXXXX XXXXXXX XXXXXXXX  XXX  XXXXXXXXXXXXX  XXXX   XXXX XX  
                                                                X      X   XXX XXXXXXX XXX X  X    X  X               X              
                                                                X      X       XXX XX    X X  X       X                              
                                                                X      X       XXX XX         X                                      
                                                                X      X       X X XX         X                                      
                                                                X      X       X X XX         X                                      
                                                                X                X XX         X                                      
                                                                X                X XX                                                
                                                                X                X XX                                                
                                                                X                  XX                                                
                                                                X                  XX                                                
                                                                X                   X                                                
                                                                X                   X                                                
                                                                X                   X                                                
                                                                X                   X                                                
                                                                X                   X                                                
                                                                X                   X                                                
                                                                X                   X                                                
                                                                X                   X                                                
                                                                X                                                                    
 
 -------------------------------------------------------------------
 Center     Atomic                   Forces (Hartrees/Bohr)
 Number     Number              X              Y              Z
 -------------------------------------------------------------------
      1        6           0.000143016   -0.000012932   -0.000000406
      2        6           0.000239376    0.000003233   -0.000001011
      3        6           0.000160862    0.000034021   -0.000004393
      4        7          -0.000132036   -0.000016239    0.000005971
      5        6           0.000125475    0.000025576    0.000001265
      6        1          -0.000001261   -0.000000850    0.000000129
      7        6           0.000148076    0.000021917   -0.000001723
      8        6           0.000112915   -0.000002994   -0.000000634
      9        1          -0.000001264    0.000000650    0.000000129
     10        7          -0.000114356    0.000000437   -0.000000045
     11        7          -0.000124624   -0.000011907   -0.000001322
     12        7          -0.000161078   -0.000007060    0.000003518
     13        7          -0.000133495   -0.000006597   -0.000000325
     14        6          -0.000158673    0.000079160   -0.000000620
     15        8          -0.000030646   -0.000083560   -0.000000132
     16        6          -0.000002977    0.000001914    0.000000472
     17        1           0.000000094   -0.000000154    0.000000001
     18        1           0.000001603   -0.000000062   -0.000001368
     19        1           0.000001997   -0.000000212    0.000001093
     20        7          -0.000037961   -0.000035860   -0.000000813
     21        7          -0.000035043    0.000011520    0.000000213
 -------------------------------------------------------------------
 Cartesian Forces:  Max     0.000239376 RMS     0.000067893
 FormGI is forming the generalized inverse of G from B-inverse, IUseBI=4.
 Leave Link  716 at Tue May 28 10:00:25 2024, MaxMem=  1073741824 cpu:               0.0 elap:               0.1
 (Enter /opt/gaussian/gaussian16/g16/l718.exe)

 **********************************************************************

             Generation of the Franck-Condon spectrum

 **********************************************************************


     ==================================================
            Parameters for vibronic calculations
     ==================================================
 

 Using the following non-standard input for vibronic spectroscopy:
 Initial=Source=Chk
 Final=Source=Chk
 Print=(HuangRhys,Matrix=JK)
 --- end of non-standard input.

     ==================================================
               Information on the Simulation
     ==================================================

 General framework: TIME-INDEPENDENT
[...]
     5498.7068    0.182671D+03
     5506.7068    0.179798D+03
     5514.7068    0.177072D+03
     5522.7068    0.174487D+03
     5530.7068    0.172045D+03
     5538.7068    0.169737D+03
     5546.7068    0.167566D+03
     5554.7068    0.165519D+03
     5562.7068    0.163596D+03
     5570.7068    0.161789D+03
     5578.7068    0.160095D+03
     5586.7068    0.158508D+03
     5594.7068    0.157026D+03
     5602.7068    0.155644D+03
     5610.7068    0.154357D+03
     5618.7068    0.153160D+03
     5626.7068    0.152050D+03
     5634.7068    0.151020D+03
     5642.7068    0.150066D+03
     5650.7068    0.149187D+03
     5658.7068    0.148375D+03
     5666.7068    0.147630D+03
     5674.7068    0.146944D+03
     5682.7068    0.146317D+03
     5690.7068    0.145742D+03
     5698.7068    0.145218D+03
     5706.7068    0.144739D+03
     5714.7068    0.144303D+03
     5722.7068    0.143908D+03
     5730.7068    0.143550D+03
     5738.7068    0.143227D+03
     5746.7068    0.142934D+03
     5754.7068    0.142671D+03
     5762.7068    0.142434D+03
     5770.7068    0.142222D+03
     5778.7068    0.142032D+03
     5786.7068    0.141863D+03
     5794.7068    0.141712D+03
     5802.7068    0.141579D+03
     5810.7068    0.141461D+03
     5818.7068    0.141358D+03
     5826.7068    0.141267D+03
     5834.7068    0.141190D+03
     5842.7068    0.141122D+03
     5850.7068    0.141066D+03
     5858.7068    0.141019D+03
     5866.7068    0.140981D+03
     5874.7068    0.140952D+03
     5882.7068    0.140930D+03
     5890.7068    0.140916D+03
     5898.7068    0.140910D+03
     5906.7068    0.140911D+03
     5914.7068    0.140920D+03
     5922.7068    0.140935D+03
     5930.7068    0.140957D+03
     5938.7068    0.140986D+03
     5946.7068    0.141023D+03
     5954.7068    0.141067D+03
     5962.7068    0.141118D+03
     5970.7068    0.141177D+03
     5978.7068    0.141243D+03
     5986.7068    0.141317D+03
     5994.7068    0.141399D+03
     6002.7068    0.141490D+03
     6010.7068    0.141588D+03
     6018.7068    0.141694D+03
     6026.7068    0.141809D+03
     6034.7068    0.141932D+03
     6042.7068    0.142062D+03
     6050.7068    0.142201D+03
     6058.7068    0.142347D+03
     6066.7068    0.142501D+03
     6074.7068    0.142661D+03
     6082.7068    0.142828D+03
     6090.7068    0.143001D+03
     6098.7068    0.143179D+03
     6106.7068    0.143361D+03
     6114.7068    0.143548D+03
     6122.7068    0.143737D+03
     6130.7068    0.143929D+03
     6138.7068    0.144120D+03
     6146.7068    0.144312D+03
     6154.7068    0.144502D+03
     6162.7068    0.144688D+03
     6170.7068    0.144871D+03
     6178.7068    0.145047D+03
     6186.7068    0.145216D+03
     6194.7068    0.145376D+03
     6202.7068    0.145525D+03
     6210.7068    0.145662D+03
     6218.7068    0.145785D+03
     6226.7068    0.145892D+03
     6234.7068    0.145982D+03
     6242.7068    0.146052D+03
     6250.7068    0.146102D+03
     6258.7068    0.146129D+03
     6266.7068    0.146131D+03
     6274.7068    0.146108D+03
     6282.7068    0.146057D+03
     6290.7068    0.145977D+03
     6298.7068    0.145866D+03
     6306.7068    0.145723D+03
     6314.7068    0.145547D+03
     6322.7068    0.145337D+03
     6330.7068    0.145091D+03
     6338.7068    0.144808D+03
     6346.7068    0.144489D+03
     6354.7068    0.144130D+03
     6362.7068    0.143734D+03
     6370.7068    0.143297D+03
     6378.7068    0.142822D+03
     6386.7068    0.142306D+03
     6394.7068    0.141750D+03
     6402.7068    0.141154D+03
     6410.7068    0.140518D+03
     6418.7068    0.139842D+03
     6426.7068    0.139127D+03
     6434.7068    0.138373D+03
     6442.7068    0.137581D+03
     6450.7068    0.136750D+03
     6458.7068    0.135883D+03
     6466.7068    0.134980D+03
     6474.7068    0.134042D+03
     6482.7068    0.133069D+03
     6490.7068    0.132063D+03
     6498.7068    0.131026D+03
     6506.7068    0.129959D+03
     6514.7068    0.128862D+03
     6522.7068    0.127737D+03
     6530.7068    0.126585D+03
     6538.7068    0.125408D+03
     6546.7068    0.124207D+03
     6554.7068    0.122982D+03
     6562.7068    0.121738D+03
     6570.7068    0.120473D+03
     6578.7068    0.119190D+03
     6586.7068    0.117889D+03
     6594.7068    0.116572D+03
     6602.7068    0.115241D+03
     6610.7068    0.113896D+03
     6618.7068    0.112538D+03
     6626.7068    0.111169D+03
     6634.7068    0.109790D+03
     6642.7068    0.108402D+03
     6650.7068    0.107006D+03
     6658.7068    0.105602D+03
     6666.7068    0.104191D+03
     6674.7068    0.102774D+03
     6682.7068    0.101353D+03
     6690.7068    0.999268D+02
     6698.7068    0.984979D+02
     6706.7068    0.970660D+02
     6714.7068    0.956316D+02
     6722.7068    0.941960D+02
     6730.7068    0.927592D+02
     6738.7068    0.913223D+02
     6746.7068    0.898852D+02
     6754.7068    0.884499D+02
     6762.7068    0.870163D+02
     6770.7068    0.855847D+02
     6778.7068    0.841564D+02
     6786.7068    0.827317D+02
     6794.7068    0.813117D+02
     6802.7068    0.798966D+02
     6810.7068    0.784876D+02
     6818.7068    0.770860D+02
     6826.7068    0.756919D+02
     6834.7068    0.743061D+02
     6842.7068    0.729301D+02
     6850.7068    0.715643D+02
     6858.7068    0.702098D+02
     6866.7068    0.688668D+02
     6874.7068    0.675375D+02
     6882.7068    0.662218D+02
     6890.7068    0.649210D+02
     6898.7068    0.636358D+02
     6906.7068    0.623672D+02
     6914.7068    0.611161D+02
     6922.7068    0.598825D+02
     6930.7068    0.586680D+02
     6938.7068    0.574730D+02
     6946.7068    0.562981D+02
     6954.7068    0.551441D+02
     6962.7068    0.540117D+02
     6970.7068    0.529012D+02
     6978.7068    0.518130D+02
     6986.7068    0.507471D+02
     6994.7068    0.497046D+02
     7002.7068    0.486851D+02
     7010.7068    0.476895D+02
     7018.7068    0.467178D+02
     7026.7068    0.457702D+02
     7034.7068    0.448466D+02
     7042.7068    0.439467D+02
     7050.7068    0.430710D+02
     7058.7068    0.422189D+02
     7066.7068    0.413909D+02
     7074.7068    0.405866D+02
     7082.7068    0.398060D+02
     7090.7068    0.390487D+02
     7098.7068    0.383143D+02
     7106.7068    0.376024D+02
     7114.7068    0.369129D+02
     7122.7068    0.362451D+02
     7130.7068    0.355991D+02
     7138.7068    0.349745D+02
     7146.7068    0.343708D+02
     7154.7068    0.337872D+02
     7162.7068    0.332241D+02
     7170.7068    0.326798D+02
     7178.7068    0.321541D+02
     7186.7068    0.316472D+02
     7194.7068    0.311581D+02
     7202.7068    0.306867D+02
     7210.7068    0.302322D+02
     7218.7068    0.297958D+02
     7226.7068    0.293741D+02
     7234.7068    0.289683D+02
     7242.7068    0.285776D+02
     7250.7068    0.282023D+02
     7258.7068    0.278417D+02
     7266.7068    0.274955D+02
     7274.7068    0.271652D+02
     7282.7068    0.268488D+02
     7290.7068    0.265460D+02
     7298.7068    0.262572D+02
     7306.7068    0.259830D+02
     7314.7068    0.257235D+02
     7322.7068    0.254791D+02
     7330.7068    0.252511D+02
     7338.7068    0.250409D+02
     7346.7068    0.248460D+02
     7354.7068    0.246697D+02
     7362.7068    0.245121D+02
     7370.7068    0.243753D+02
     7378.7068    0.242606D+02
     7386.7068    0.241703D+02
     7394.7068    0.241095D+02
     7402.7068    0.240747D+02
     7410.7068    0.240714D+02
     7418.7068    0.241011D+02
     7426.7068    0.241678D+02
     7434.7068    0.242745D+02
     7442.7068    0.244251D+02
     7450.7068    0.246258D+02
     7458.7068    0.248774D+02
     7466.7068    0.251838D+02
     7474.7068    0.255508D+02
     7482.7068    0.259820D+02
     7490.7068    0.264824D+02
     7498.7068    0.270573D+02
     7506.7068    0.277114D+02
     7514.7068    0.284536D+02
     7522.7068    0.292816D+02
     7530.7068    0.302045D+02
     7538.7068    0.312251D+02
     7546.7068    0.323490D+02
     7554.7068    0.335804D+02
     7562.7068    0.349242D+02
     7570.7068    0.363866D+02
     7578.7068    0.379667D+02
     7586.7068    0.396699D+02
     7594.7068    0.414985D+02
     7602.7068    0.434548D+02
     7610.7068    0.455408D+02
     7618.7068    0.477583D+02
     7626.7068    0.501081D+02
     7634.7068    0.525928D+02
     7642.7068    0.552071D+02
     7650.7068    0.579536D+02
     7658.7068    0.608283D+02
     7666.7068    0.638304D+02
     7674.7068    0.669561D+02
     7682.7068    0.702028D+02
     7690.7068    0.735672D+02
     7698.7068    0.770413D+02
     7706.7068    0.806216D+02
     7714.7068    0.843006D+02
     7722.7068    0.880722D+02
     7730.7068    0.919284D+02
     7738.7068    0.958617D+02
     7746.7068    0.998637D+02
     7754.7068    0.103926D+03
     7762.7068    0.108037D+03
     7770.7068    0.112189D+03
     7778.7068    0.116370D+03
     7786.7068    0.120571D+03
     7794.7068    0.124780D+03
     7802.7068    0.128987D+03
     7810.7068    0.133181D+03
     7818.7068    0.137350D+03
     7826.7068    0.141483D+03
     7834.7068    0.145570D+03
     7842.7068    0.149599D+03
     7850.7068    0.153559D+03
     7858.7068    0.157440D+03
     7866.7068    0.161231D+03
     7874.7068    0.164923D+03
     7882.7068    0.168506D+03
     7890.7068    0.171970D+03
     7898.7068    0.175306D+03
     7906.7068    0.178507D+03
     7914.7068    0.181565D+03
     7922.7068    0.184471D+03
     7930.7068    0.187220D+03
     7938.7068    0.189806D+03
     7946.7068    0.192222D+03
     7954.7068    0.194465D+03
     7962.7068    0.196529D+03
     7970.7068    0.198412D+03
     7978.7068    0.200110D+03
     7986.7068    0.201622D+03
     7994.7068    0.202945D+03
     8002.7068    0.204079D+03
     8010.7068    0.205024D+03
     8018.7068    0.205780D+03
     8026.7068    0.206347D+03
     8034.7068    0.206727D+03
     8042.7068    0.206923D+03
     8050.7068    0.206937D+03
     8058.7068    0.206772D+03
     8066.7068    0.206432D+03
     8074.7068    0.205920D+03
     8082.7068    0.205242D+03
     8090.7068    0.204402D+03
     8098.7068    0.203406D+03
     8106.7068    0.202258D+03
     8114.7068    0.200965D+03
     8122.7068    0.199533D+03
     8130.7068    0.197969D+03
     8138.7068    0.196278D+03
     8146.7068    0.194467D+03
     8154.7068    0.192543D+03
     8162.7068    0.190514D+03
     8170.7068    0.188384D+03
     8178.7068    0.186163D+03
     8186.7068    0.183857D+03
     8194.7068    0.181473D+03
     8202.7068    0.179017D+03
     8210.7068    0.176497D+03
     8218.7068    0.173918D+03
     8226.7068    0.171287D+03
     8234.7068    0.168613D+03
     8242.7068    0.165900D+03
     8250.7068    0.163156D+03
     8258.7068    0.160385D+03
     8266.7068    0.157594D+03
     8274.7068    0.154789D+03
     8282.7068    0.151973D+03
     8290.7068    0.149152D+03
     8298.7068    0.146336D+03
     8306.7068    0.143525D+03
     8314.7068    0.140725D+03
     8322.7068    0.137940D+03
     8330.7068    0.135174D+03
     8338.7068    0.132432D+03
     8346.7068    0.129712D+03
     8354.7068    0.127028D+03
     8362.7068    0.124377D+03
     8370.7068    0.121765D+03
     8378.7068    0.119191D+03
     8386.7068    0.116660D+03
     8394.7068    0.114173D+03
     8402.7068    0.111730D+03
     8410.7068    0.109339D+03
     8418.7068    0.107000D+03
     8426.7068    0.104714D+03
     8434.7068    0.102481D+03
     8442.7068    0.100303D+03
     8450.7068    0.981813D+02
     8458.7068    0.961158D+02
     8466.7068    0.941035D+02
     8474.7068    0.921550D+02
     8482.7068    0.902634D+02
     8490.7068    0.884317D+02
     8498.7068    0.866582D+02
     8506.7068    0.849433D+02
     8514.7068    0.832860D+02
     8522.7068    0.816832D+02
     8530.7068    0.801426D+02
     8538.7068    0.786587D+02
     8546.7068    0.772321D+02
     8554.7068    0.758610D+02
     8562.7068    0.745452D+02
     8570.7068    0.732830D+02
     8578.7068    0.720737D+02
     8586.7068    0.709144D+02
     8594.7068    0.698099D+02
     8602.7068    0.687544D+02
     8610.7068    0.677490D+02
     8618.7068    0.667906D+02
     8626.7068    0.658790D+02
     8634.7068    0.650116D+02
     8642.7068    0.641863D+02
     8650.7068    0.634062D+02
     8658.7068    0.626668D+02
     8666.7068    0.619678D+02
     8674.7068    0.613069D+02
     8682.7068    0.606833D+02
     8690.7068    0.600949D+02
     8698.7068    0.595404D+02
     8706.7068    0.590180D+02
     8714.7068    0.585289D+02
     8722.7068    0.580694D+02
     8730.7068    0.576395D+02
     8738.7068    0.572369D+02
     8746.7068    0.568609D+02
     8754.7068    0.565095D+02
     8762.7068    0.561814D+02
     8770.7068    0.558773D+02
     8778.7068    0.555946D+02
     8786.7068    0.553327D+02
     8794.7068    0.550904D+02
     8802.7068    0.548667D+02
     8810.7068    0.546602D+02
     8818.7068    0.544700D+02
     8826.7068    0.542953D+02
     8834.7068    0.541359D+02
     8842.7068    0.539900D+02
     8850.7068    0.538574D+02
     8858.7068    0.537372D+02
     8866.7068    0.536285D+02
     8874.7068    0.535304D+02
     8882.7068    0.534424D+02
     8890.7068    0.533642D+02
     8898.7068    0.532950D+02
     8906.7068    0.532342D+02
     8914.7068    0.531817D+02
     8922.7068    0.531365D+02
     8930.7068    0.530983D+02
     8938.7068    0.530667D+02
     8946.7068    0.530414D+02
     8954.7068    0.530225D+02
     8962.7068    0.530089D+02
     8970.7068    0.530012D+02
     8978.7068    0.529988D+02
     8986.7068    0.530015D+02
     8994.7068    0.530093D+02
     9002.7068    0.530220D+02
     9010.7068    0.530396D+02
     9018.7068    0.530621D+02
     9026.7068    0.530894D+02
     9034.7068    0.531218D+02
     9042.7068    0.531586D+02
     9050.7068    0.532007D+02
     9058.7068    0.532476D+02
     9066.7068    0.532995D+02
     9074.7068    0.533567D+02
     9082.7068    0.534188D+02
     9090.7068    0.534863D+02
     9098.7068    0.535591D+02
     9106.7068    0.536369D+02
     9114.7068    0.537206D+02
     9122.7068    0.538094D+02
     9130.7068    0.539037D+02
     9138.7068    0.540034D+02
     9146.7068    0.541083D+02
     9154.7068    0.542184D+02
     9162.7068    0.543332D+02
     9170.7068    0.544534D+02
     9178.7068    0.545780D+02
     9186.7068    0.547070D+02
     9194.7068    0.548401D+02
     9202.7068    0.549767D+02
     9210.7068    0.551166D+02
     9218.7068    0.552591D+02
     9226.7068    0.554035D+02
     9234.7068    0.555498D+02
     9242.7068    0.556968D+02
     9250.7068    0.558439D+02
     9258.7068    0.559904D+02
     9266.7068    0.561353D+02
     9274.7068    0.562778D+02
     9282.7068    0.564167D+02
     9290.7068    0.565518D+02
     9298.7068    0.566813D+02
     9306.7068    0.568046D+02
     9314.7068    0.569205D+02
     9322.7068    0.570279D+02
     9330.7068    0.571257D+02
     9338.7068    0.572128D+02
     9346.7068    0.572881D+02
     9354.7068    0.573507D+02
     9362.7068    0.573993D+02
     9370.7068    0.574332D+02
     9378.7068    0.574510D+02
     9386.7068    0.574521D+02
     9394.7068    0.574353D+02
     9402.7068    0.573998D+02
     9410.7068    0.573451D+02
     9418.7068    0.572701D+02
     9426.7068    0.571744D+02
     9434.7068    0.570572D+02
     9442.7068    0.569185D+02
     9450.7068    0.567574D+02
     9458.7068    0.565737D+02
     9466.7068    0.563672D+02
     9474.7068    0.561379D+02
     9482.7068    0.558856D+02
     9490.7068    0.556103D+02
     9498.7068    0.553125D+02
     9506.7068    0.549922D+02
     9514.7068    0.546496D+02
 -----------------------------

 Leave Link  718 at Tue May 28 10:01:44 2024, MaxMem=  1073741824 cpu:              78.1 elap:              78.3
 (Enter /opt/gaussian/gaussian16/g16/l9999.exe)

 ----------------------------------------------------------------------

 Electric dipole moment (input orientation):
 (Debye = 10**-18 statcoulomb cm , SI units = C m)
                  (au)            (Debye)         (10**-30 SI)
   Tot        0.183412D+01      0.466186D+01      0.155503D+02
   x          0.159894D+01      0.406411D+01      0.135564D+02
   y          0.898538D+00      0.228386D+01      0.761812D+01
   z         -0.185457D-03     -0.471385D-03     -0.157237D-02

 Dipole polarizability, Alpha (input orientation).
 (esu units = cm**3 , SI units = C**2 m**2 J**-1)
 Alpha(0;0):
               (au)            (10**-24 esu)      (10**-40 SI)
   iso        0.152775D+03      0.226390D+02      0.251893D+02
   aniso      0.158892D+03      0.235454D+02      0.261978D+02
   xx         0.235493D+03      0.348965D+02      0.388276D+02
   yx         0.567979D+01      0.841658D+00      0.936471D+00
   yy         0.168440D+03      0.249602D+02      0.277719D+02
   zx        -0.105233D-01     -0.155940D-02     -0.173506D-02
   zy         0.169403D-02      0.251029D-03      0.279308D-03
   zz         0.543932D+02      0.806024D+01      0.896823D+01

 ----------------------------------------------------------------------

 Dipole orientation:
     6          1.12626330         -2.00407515         -0.73112632
     6         -0.69086505          1.22937153         -3.01021478
     6         -0.89830705          1.59797620          1.32705349
     7          0.41767351         -0.74315163          1.54352014
     6         -0.94334887          1.67740234          5.65440002
     1         -1.49018636          2.65013758          7.37803483
     6          0.98466018         -1.75278424          3.88459286
     6          2.84291949         -5.05908742          1.82004560
     1          3.84634953         -6.84459120          1.96919211
     7          2.37833186         -4.23213243         -0.49615981
     7         -1.56409105          2.78212950          3.50172901
     7         -1.42130268          2.52878110         -0.89305654
     7          0.58528233         -1.04141814         -2.92688573
     6         -1.29379232          2.30238252         -5.51575199
     8         -0.67179150          1.19581156         -7.45179406
     6         -2.69949369          4.80356754         -5.56513167
     1         -3.00167296          5.34139023         -7.53335127
     1         -4.52050423          4.65710420         -4.58999298
     1         -1.62768233          6.28292756         -4.58986811
     7          0.30402770         -0.54219050          5.99208947
     7          2.22304946         -3.95647678          4.04594261

 Electric dipole moment (dipole orientation):
 (Debye = 10**-18 statcoulomb cm , SI units = C m)
                  (au)            (Debye)         (10**-30 SI)
   Tot        0.183412D+01      0.466186D+01      0.155503D+02
   x          0.000000D+00      0.000000D+00      0.000000D+00
   y          0.000000D+00      0.000000D+00      0.000000D+00
   z          0.183412D+01      0.466186D+01      0.155503D+02

 Dipole polarizability, Alpha (dipole orientation).
 (esu units = cm**3 , SI units = C**2 m**2 J**-1)
 Alpha(0;0):
               (au)            (10**-24 esu)      (10**-40 SI)
   iso        0.152775D+03      0.226390D+02      0.251893D+02
   aniso      0.158892D+03      0.235454D+02      0.261978D+02
   xx         0.844663D+02      0.125166D+02      0.139266D+02
   yx        -0.535108D+02     -0.792948D+01     -0.882274D+01
   yy         0.149608D+03      0.221696D+02      0.246670D+02
   zx         0.125751D+02      0.186343D+01      0.207335D+01
   zy        -0.223953D+02     -0.331864D+01     -0.369249D+01
   zz         0.224252D+03      0.332307D+02      0.369741D+02

 ----------------------------------------------------------------------

 This type of calculation cannot be archived.


 QED = W**5 (WHICH WAS WHAT WE WANTED)
 Job cpu time:       0 days  0 hours  1 minutes 19.5 seconds.
 Elapsed time:       0 days  0 hours  1 minutes 18.9 seconds.
 File lengths (MBytes):  RWF=      6 Int=      0 D2E=      0 Chk=     16 Scr=      1
 Normal termination of Gaussian 16 at Tue May 28 10:01:44 2024.
